
     Program PWSCF v.6.6 starts on  9Feb2021 at 11:56: 9 

     This program is part of the open-source Quantum ESPRESSO suite
     for quantum simulation of materials; please cite
         "P. Giannozzi et al., J. Phys.:Condens. Matter 21 395502 (2009);
         "P. Giannozzi et al., J. Phys.:Condens. Matter 29 465901 (2017);
          URL http://www.quantum-espresso.org", 
     in publications or presentations arising from this work. More details at
     http://www.quantum-espresso.org/quote

     Parallel version (MPI), running on   192 processors

     MPI processes distributed on     4 nodes
     K-points division:     npool     =      16
     R & G space division:  proc/nbgrp/npool/nimage =      12
     Fft bands division:     nmany     =       1
     Waiting for input...
     Reading input from standard input

     Current dimensions of program PWSCF are:
     Max number of different atomic species (ntypx) = 10
     Max number of k-points (npk) =  40000
     Max angular momentum in pseudopotentials (lmaxx) =  3
     Message from routine scan_end:
     No INFO block end statement, possibly corrupted file
     Message from routine scan_end:
     No INFO block end statement, possibly corrupted file
     Message from routine scan_end:
     No INFO block end statement, possibly corrupted file
     Message from routine scan_end:
     No INFO block end statement, possibly corrupted file

     IMPORTANT: XC functional enforced from input :
     Exchange-correlation= PBESOL
                           (   1   4  10   8   0   0   0)
     Any further DFT definition will be discarded
     Please, verify this is what you really want


     Subspace diagonalization in iterative solution of the eigenvalue problem:
     one sub-group per band group will be used
     custom distributed-memory algorithm (size of sub-group:  3*  3 procs)

 
     Parallelization info
     --------------------
     sticks:   dense  smooth     PW     G-vecs:    dense   smooth      PW
     Min         330     330     90                15330    15330    2210
     Max         331     331     91                15333    15333    2215
     Sum        3961    3961   1089               183977   183977   26553
 

     Title: 
     bto                                                                        


     bravais-lattice index     =            0
     lattice parameter (alat)  =      15.8325  a.u.
     unit-cell volume          =    3851.6604 (a.u.)^3
     number of atoms/cell      =           40
     number of atomic types    =            4
     number of electrons       =       320.00
     number of Kohn-Sham states=          160
     kinetic-energy cutoff     =      50.0000  Ry
     charge density cutoff     =     200.0000  Ry
     convergence threshold     =      1.0E-09
     mixing beta               =       0.7000
     number of iterations used =            8  plain     mixing
     Exchange-correlation= PBESOL
                           (   1   4  10   8   0   0   0)
     nstep                     =       100000


     celldm(1)=  15.832451  celldm(2)=   0.000000  celldm(3)=   0.000000
     celldm(4)=   0.000000  celldm(5)=   0.000000  celldm(6)=   0.000000

     crystal axes: (cart. coord. in units of alat)
               a(1) = (   1.000000   0.000000   0.000000 )  
               a(2) = (   0.000000   0.991456   0.000000 )  
               a(3) = (   0.000000   0.000000   0.978881 )  

     reciprocal axes: (cart. coord. in units 2 pi/alat)
               b(1) = (  1.000000  0.000000  0.000000 )  
               b(2) = (  0.000000  1.008617  0.000000 )  
               b(3) = (  0.000000  0.000000  1.021574 )  


     PseudoPot. # 1 for Ba read from file:
     ./ba.upf
     MD5 check sum: 569c1dde556b1c81f66e1af894da4ae7
     Pseudo is Norm-conserving, Zval = 10.0
     Generated by new atomic code, or converted to UPF format
     Using radial grid of 1179 points,  3 beta functions with: 
                l(1) =   0
                l(2) =   1
                l(3) =   2

     PseudoPot. # 2 for O  read from file:
     ./o.upf
     MD5 check sum: 6afdad5913fe366ac5de9e6b2d735f4a
     Pseudo is Norm-conserving, Zval =  6.0
     Generated by new atomic code, or converted to UPF format
     Using radial grid of 1130 points,  1 beta functions with: 
                l(1) =   1

     PseudoPot. # 3 for Zr read from file:
     ./zr.upf
     MD5 check sum: 4323fbb0604ce3758ff2f6a711565820
     Pseudo is Norm-conserving, Zval = 12.0
     Generated by new atomic code, or converted to UPF format
     Using radial grid of 1171 points,  3 beta functions with: 
                l(1) =   0
                l(2) =   1
                l(3) =   2

     PseudoPot. # 4 for Ca read from file:
     ./ca.upf
     MD5 check sum: 9d40c44c50ef0ff3e83632165cb52c7c
     Pseudo is Norm-conserving, Zval = 10.0
     Generated by new atomic code, or converted to UPF format
     Using radial grid of 1153 points,  3 beta functions with: 
                l(1) =   0
                l(2) =   1
                l(3) =   2

     atomic species   valence    mass     pseudopotential
        Ba            10.00   137.32700     Ba( 1.00)
        O              6.00    15.99940     O ( 1.00)
        Zr            12.00    47.86700     Zr( 1.00)
        Ca            10.00    40.08700     Ca( 1.00)

     No symmetry found


                                    s                        frac. trans.

      isym =  1     identity                                     

 cryst.   s( 1) = (     1          0          0      )
                  (     0          1          0      )
                  (     0          0          1      )

 cart.    s( 1) = (  1.0000000  0.0000000  0.0000000 )
                  (  0.0000000  1.0000000  0.0000000 )
                  (  0.0000000  0.0000000  1.0000000 )


   Cartesian axes

     site n.     atom                  positions (alat units)
         1           Ca  tau(   1) = (   0.0624785   0.0256844   0.0002469  )
         2           Ca  tau(   2) = (   0.5624675   0.5214102   0.0002553  )
         3           Ca  tau(   3) = (   0.0624835   0.4699329   0.0002649  )
         4           Ca  tau(   4) = (   0.5624925  -0.0257887   0.0002558  )
         5           Ba  tau(   5) = (   0.0067634   0.0015486   0.4897070  )
         6           Ba  tau(   6) = (   0.0067833   0.4942198   0.4897055  )
         7           Ba  tau(   7) = (   0.5067741  -0.0015139   0.4896924  )
         8           Ba  tau(   8) = (   0.5067667   0.4972740   0.4896927  )
         9           Zr  tau(   9) = (   0.2633438   0.2478669   0.2439928  )
        10           Zr  tau(  10) = (   0.2633963   0.2478563   0.7353212  )
        11           Zr  tau(  11) = (   0.2546782   0.7435863   0.2355143  )
        12           Zr  tau(  12) = (   0.2547186   0.7435672   0.7439022  )
        13           Zr  tau(  13) = (   0.7546872   0.2478591   0.2355134  )
        14           Zr  tau(  14) = (   0.7547181   0.2478422   0.7438980  )
        15           Zr  tau(  15) = (   0.7633435   0.7436013   0.2439916  )
        16           Zr  tau(  16) = (   0.7633894   0.7435898   0.7353192  )
        17           O   tau(  17) = (   0.2346016   0.0006985   0.2328988  )
        18           O   tau(  18) = (   0.2347258   0.0006808   0.7464448  )
        19           O   tau(  19) = (   0.2344989   0.4950404   0.2330433  )
        20           O   tau(  20) = (   0.2345131   0.4950220   0.7463053  )
        21           O   tau(  21) = (   0.7344944  -0.0006803   0.2330900  )
        22           O   tau(  22) = (   0.7345010  -0.0006980   0.7462611  )
        23           O   tau(  23) = (   0.7346123   0.4964327   0.2328604  )
        24           O   tau(  24) = (   0.7347304   0.4964161   0.7464864  )
        25           O   tau(  25) = (   0.2711474   0.2480219   0.0002319  )
        26           O   tau(  26) = (   0.2092332   0.2478345   0.4896703  )
        27           O   tau(  27) = (   0.1761360   0.7435380   0.0002543  )
        28           O   tau(  28) = (   0.2858845   0.7436287   0.4896923  )
        29           O   tau(  29) = (   0.6761454   0.2477798   0.0002480  )
        30           O   tau(  30) = (   0.7858923   0.2479380   0.4896854  )
        31           O   tau(  31) = (   0.7711356   0.7438352   0.0002329  )
        32           O   tau(  32) = (   0.7092290   0.7435518   0.4896723  )
        33           O   tau(  33) = (  -0.0033143   0.2478182   0.1892311  )
        34           O   tau(  34) = (  -0.0032860   0.2477237   0.7901208  )
        35           O   tau(  35) = (  -0.0010112   0.7436472   0.2899405  )
        36           O   tau(  36) = (  -0.0009648   0.7436653   0.6894812  )
        37           O   tau(  37) = (   0.4989930   0.2479282   0.2899286  )
        38           O   tau(  38) = (   0.4990372   0.2479465   0.6894685  )
        39           O   tau(  39) = (   0.4966803   0.7435406   0.1892429  )
        40           O   tau(  40) = (   0.4967124   0.7434550   0.7901228  )

   Crystallographic axes

     site n.     atom                  positions (cryst. coord.)
         1           Ca  tau(   1) = (  0.0624785  0.0259057  0.0002522  )
         2           Ca  tau(   2) = (  0.5624675  0.5259034  0.0002608  )
         3           Ca  tau(   3) = (  0.0624835  0.4739825  0.0002706  )
         4           Ca  tau(   4) = (  0.5624925 -0.0260109  0.0002613  )
         5           Ba  tau(   5) = (  0.0067634  0.0015619  0.5002722  )
         6           Ba  tau(   6) = (  0.0067833  0.4984787  0.5002707  )
         7           Ba  tau(   7) = (  0.5067741 -0.0015269  0.5002573  )
         8           Ba  tau(   8) = (  0.5067667  0.5015591  0.5002576  )
         9           Zr  tau(   9) = (  0.2633438  0.2500029  0.2492568  )
        10           Zr  tau(  10) = (  0.2633963  0.2499922  0.7511854  )
        11           Zr  tau(  11) = (  0.2546782  0.7499940  0.2405954  )
        12           Zr  tau(  12) = (  0.2547186  0.7499747  0.7599515  )
        13           Zr  tau(  13) = (  0.7546872  0.2499950  0.2405945  )
        14           Zr  tau(  14) = (  0.7547181  0.2499779  0.7599472  )
        15           Zr  tau(  15) = (  0.7633435  0.7500091  0.2492556  )
        16           Zr  tau(  16) = (  0.7633894  0.7499976  0.7511833  )
        17           O   tau(  17) = (  0.2346016  0.0007046  0.2379235  )
        18           O   tau(  18) = (  0.2347258  0.0006867  0.7625489  )
        19           O   tau(  19) = (  0.2344989  0.4993063  0.2380711  )
        20           O   tau(  20) = (  0.2345131  0.4992877  0.7624065  )
        21           O   tau(  21) = (  0.7344944 -0.0006861  0.2381188  )
        22           O   tau(  22) = (  0.7345010 -0.0007041  0.7623613  )
        23           O   tau(  23) = (  0.7346123  0.5007106  0.2378843  )
        24           O   tau(  24) = (  0.7347304  0.5006939  0.7625915  )
        25           O   tau(  25) = (  0.2711474  0.2501592  0.0002369  )
        26           O   tau(  26) = (  0.2092332  0.2499701  0.5002347  )
        27           O   tau(  27) = (  0.1761360  0.7499453  0.0002598  )
        28           O   tau(  28) = (  0.2858845  0.7500368  0.5002571  )
        29           O   tau(  29) = (  0.6761454  0.2499150  0.0002534  )
        30           O   tau(  30) = (  0.7858923  0.2500746  0.5002501  )
        31           O   tau(  31) = (  0.7711356  0.7502451  0.0002380  )
        32           O   tau(  32) = (  0.7092290  0.7499592  0.5002367  )
        33           O   tau(  33) = ( -0.0033143  0.2499537  0.1933136  )
        34           O   tau(  34) = ( -0.0032860  0.2498584  0.8071672  )
        35           O   tau(  35) = ( -0.0010112  0.7500554  0.2961958  )
        36           O   tau(  36) = ( -0.0009648  0.7500737  0.7043564  )
        37           O   tau(  37) = (  0.4989930  0.2500647  0.2961836  )
        38           O   tau(  38) = (  0.4990372  0.2500831  0.7043435  )
        39           O   tau(  39) = (  0.4966803  0.7499479  0.1933257  )
        40           O   tau(  40) = (  0.4967124  0.7498615  0.8071693  )

     number of k points=    36
                       cart. coord. in units 2pi/alat
        k(    1) = (   0.0000000   0.0000000   0.0000000), wk =   0.0312500
        k(    2) = (   0.0000000   0.0000000   0.2553936), wk =   0.0625000
        k(    3) = (   0.0000000   0.0000000  -0.5107872), wk =   0.0312500
        k(    4) = (   0.0000000   0.2521543   0.0000000), wk =   0.0625000
        k(    5) = (   0.0000000   0.2521543   0.2553936), wk =   0.0625000
        k(    6) = (   0.0000000   0.2521543  -0.5107872), wk =   0.0625000
        k(    7) = (   0.0000000   0.2521543  -0.2553936), wk =   0.0625000
        k(    8) = (   0.0000000  -0.5043087   0.0000000), wk =   0.0312500
        k(    9) = (   0.0000000  -0.5043087   0.2553936), wk =   0.0625000
        k(   10) = (   0.0000000  -0.5043087  -0.5107872), wk =   0.0312500
        k(   11) = (   0.2500000   0.0000000   0.0000000), wk =   0.0625000
        k(   12) = (   0.2500000   0.0000000   0.2553936), wk =   0.0625000
        k(   13) = (   0.2500000   0.0000000  -0.5107872), wk =   0.0625000
        k(   14) = (   0.2500000   0.0000000  -0.2553936), wk =   0.0625000
        k(   15) = (   0.2500000   0.2521543   0.0000000), wk =   0.0625000
        k(   16) = (   0.2500000   0.2521543   0.2553936), wk =   0.0625000
        k(   17) = (   0.2500000   0.2521543  -0.5107872), wk =   0.0625000
        k(   18) = (   0.2500000   0.2521543  -0.2553936), wk =   0.0625000
        k(   19) = (   0.2500000  -0.5043087   0.0000000), wk =   0.0625000
        k(   20) = (   0.2500000  -0.5043087   0.2553936), wk =   0.0625000
        k(   21) = (   0.2500000  -0.5043087  -0.5107872), wk =   0.0625000
        k(   22) = (   0.2500000  -0.5043087  -0.2553936), wk =   0.0625000
        k(   23) = (   0.2500000  -0.2521543   0.0000000), wk =   0.0625000
        k(   24) = (   0.2500000  -0.2521543   0.2553936), wk =   0.0625000
        k(   25) = (   0.2500000  -0.2521543  -0.5107872), wk =   0.0625000
        k(   26) = (   0.2500000  -0.2521543  -0.2553936), wk =   0.0625000
        k(   27) = (  -0.5000000   0.0000000   0.0000000), wk =   0.0312500
        k(   28) = (  -0.5000000   0.0000000   0.2553936), wk =   0.0625000
        k(   29) = (  -0.5000000   0.0000000  -0.5107872), wk =   0.0312500
        k(   30) = (  -0.5000000   0.2521543   0.0000000), wk =   0.0625000
        k(   31) = (  -0.5000000   0.2521543   0.2553936), wk =   0.0625000
        k(   32) = (  -0.5000000   0.2521543  -0.5107872), wk =   0.0625000
        k(   33) = (  -0.5000000   0.2521543  -0.2553936), wk =   0.0625000
        k(   34) = (  -0.5000000  -0.5043087   0.0000000), wk =   0.0312500
        k(   35) = (  -0.5000000  -0.5043087   0.2553936), wk =   0.0625000
        k(   36) = (  -0.5000000  -0.5043087  -0.5107872), wk =   0.0312500

                       cryst. coord.
        k(    1) = (   0.0000000   0.0000000   0.0000000), wk =   0.0312500
        k(    2) = (   0.0000000   0.0000000   0.2500000), wk =   0.0625000
        k(    3) = (   0.0000000   0.0000000  -0.5000000), wk =   0.0312500
        k(    4) = (   0.0000000   0.2500000   0.0000000), wk =   0.0625000
        k(    5) = (   0.0000000   0.2500000   0.2500000), wk =   0.0625000
        k(    6) = (   0.0000000   0.2500000  -0.5000000), wk =   0.0625000
        k(    7) = (   0.0000000   0.2500000  -0.2500000), wk =   0.0625000
        k(    8) = (   0.0000000  -0.5000000   0.0000000), wk =   0.0312500
        k(    9) = (   0.0000000  -0.5000000   0.2500000), wk =   0.0625000
        k(   10) = (   0.0000000  -0.5000000  -0.5000000), wk =   0.0312500
        k(   11) = (   0.2500000   0.0000000   0.0000000), wk =   0.0625000
        k(   12) = (   0.2500000   0.0000000   0.2500000), wk =   0.0625000
        k(   13) = (   0.2500000   0.0000000  -0.5000000), wk =   0.0625000
        k(   14) = (   0.2500000   0.0000000  -0.2500000), wk =   0.0625000
        k(   15) = (   0.2500000   0.2500000   0.0000000), wk =   0.0625000
        k(   16) = (   0.2500000   0.2500000   0.2500000), wk =   0.0625000
        k(   17) = (   0.2500000   0.2500000  -0.5000000), wk =   0.0625000
        k(   18) = (   0.2500000   0.2500000  -0.2500000), wk =   0.0625000
        k(   19) = (   0.2500000  -0.5000000   0.0000000), wk =   0.0625000
        k(   20) = (   0.2500000  -0.5000000   0.2500000), wk =   0.0625000
        k(   21) = (   0.2500000  -0.5000000  -0.5000000), wk =   0.0625000
        k(   22) = (   0.2500000  -0.5000000  -0.2500000), wk =   0.0625000
        k(   23) = (   0.2500000  -0.2500000   0.0000000), wk =   0.0625000
        k(   24) = (   0.2500000  -0.2500000   0.2500000), wk =   0.0625000
        k(   25) = (   0.2500000  -0.2500000  -0.5000000), wk =   0.0625000
        k(   26) = (   0.2500000  -0.2500000  -0.2500000), wk =   0.0625000
        k(   27) = (  -0.5000000   0.0000000   0.0000000), wk =   0.0312500
        k(   28) = (  -0.5000000   0.0000000   0.2500000), wk =   0.0625000
        k(   29) = (  -0.5000000   0.0000000  -0.5000000), wk =   0.0312500
        k(   30) = (  -0.5000000   0.2500000   0.0000000), wk =   0.0625000
        k(   31) = (  -0.5000000   0.2500000   0.2500000), wk =   0.0625000
        k(   32) = (  -0.5000000   0.2500000  -0.5000000), wk =   0.0625000
        k(   33) = (  -0.5000000   0.2500000  -0.2500000), wk =   0.0625000
        k(   34) = (  -0.5000000  -0.5000000   0.0000000), wk =   0.0312500
        k(   35) = (  -0.5000000  -0.5000000   0.2500000), wk =   0.0625000
        k(   36) = (  -0.5000000  -0.5000000  -0.5000000), wk =   0.0312500

     Dense  grid:   183977 G-vectors     FFT dimensions: (  72,  72,  72)

     Dynamical RAM for                 wfc:       4.68 MB

     Dynamical RAM for     wfc (w. buffer):      18.71 MB

     Dynamical RAM for           str. fact:       0.94 MB

     Dynamical RAM for           local pot:       0.00 MB

     Dynamical RAM for          nlocal pot:       6.31 MB

     Dynamical RAM for                qrad:       2.60 MB

     Dynamical RAM for          rho,v,vnew:       1.41 MB

     Dynamical RAM for               rhoin:       0.47 MB

     Dynamical RAM for            rho*nmix:       3.74 MB

     Dynamical RAM for           G-vectors:       0.99 MB

     Dynamical RAM for          h,s,v(r/c):       0.51 MB

     Dynamical RAM for          <psi|beta>:       0.53 MB

     Dynamical RAM for                 psi:       9.36 MB

     Dynamical RAM for                hpsi:       9.36 MB

     Dynamical RAM for      wfcinit/wfcrot:      15.35 MB

     Estimated static dynamical RAM per process >      37.54 MB

     Estimated max dynamical RAM per process >      57.29 MB

     Estimated total dynamical RAM >      10.74 GB

     Initial potential from superposition of free atoms

     starting charge  271.99996, renormalised to  320.00000
     Starting wfcs are  240 randomized atomic wfcs

     total cpu time spent up to now is        1.9 secs

     Self-consistent Calculation

     iteration #  1     ecut=    50.00 Ry     beta= 0.70
     Davidson diagonalization with overlap
     ethr =  1.00E-02,  avg # of iterations =  2.3

     total cpu time spent up to now is        4.3 secs

     total energy              =   -2007.22681962 Ry
     estimated scf accuracy    <      18.36311107 Ry

     iteration #  2     ecut=    50.00 Ry     beta= 0.70
     Davidson diagonalization with overlap
     ethr =  5.74E-03,  avg # of iterations =  2.0

     total cpu time spent up to now is        6.6 secs

     total energy              =   -2010.87128390 Ry
     estimated scf accuracy    <       0.85889672 Ry

     iteration #  3     ecut=    50.00 Ry     beta= 0.70
     Davidson diagonalization with overlap
     ethr =  2.68E-04,  avg # of iterations =  3.9

     total cpu time spent up to now is        9.2 secs

     total energy              =   -2011.07042602 Ry
     estimated scf accuracy    <       0.28246172 Ry

     iteration #  4     ecut=    50.00 Ry     beta= 0.70
     Davidson diagonalization with overlap
     ethr =  8.83E-05,  avg # of iterations =  4.0

     total cpu time spent up to now is       11.6 secs

     total energy              =   -2011.13615705 Ry
     estimated scf accuracy    <       0.02964555 Ry

     iteration #  5     ecut=    50.00 Ry     beta= 0.70
     Davidson diagonalization with overlap
     ethr =  9.26E-06,  avg # of iterations =  4.1

     total cpu time spent up to now is       14.2 secs

     total energy              =   -2011.14430774 Ry
     estimated scf accuracy    <       0.01046524 Ry

     iteration #  6     ecut=    50.00 Ry     beta= 0.70
     Davidson diagonalization with overlap
     ethr =  3.27E-06,  avg # of iterations =  2.9

     total cpu time spent up to now is       16.5 secs

     total energy              =   -2011.14631221 Ry
     estimated scf accuracy    <       0.00023253 Ry

     iteration #  7     ecut=    50.00 Ry     beta= 0.70
     Davidson diagonalization with overlap
     ethr =  7.27E-08,  avg # of iterations =  6.5

     total cpu time spent up to now is       20.5 secs

     total energy              =   -2011.14665243 Ry
     estimated scf accuracy    <       0.00065281 Ry

     iteration #  8     ecut=    50.00 Ry     beta= 0.70
     Davidson diagonalization with overlap
     ethr =  7.27E-08,  avg # of iterations =  3.8

     total cpu time spent up to now is       22.9 secs

     total energy              =   -2011.14663157 Ry
     estimated scf accuracy    <       0.00016197 Ry

     iteration #  9     ecut=    50.00 Ry     beta= 0.70
     Davidson diagonalization with overlap
     ethr =  5.06E-08,  avg # of iterations =  4.2

     total cpu time spent up to now is       25.5 secs

     total energy              =   -2011.14668461 Ry
     estimated scf accuracy    <       0.00001057 Ry

     iteration # 10     ecut=    50.00 Ry     beta= 0.70
     Davidson diagonalization with overlap
     ethr =  3.30E-09,  avg # of iterations =  4.7

     total cpu time spent up to now is       27.9 secs

     total energy              =   -2011.14668417 Ry
     estimated scf accuracy    <       0.00000711 Ry

     iteration # 11     ecut=    50.00 Ry     beta= 0.70
     Davidson diagonalization with overlap
     ethr =  2.22E-09,  avg # of iterations =  2.5

     total cpu time spent up to now is       30.0 secs

     total energy              =   -2011.14668440 Ry
     estimated scf accuracy    <       0.00000119 Ry

     iteration # 12     ecut=    50.00 Ry     beta= 0.70
     Davidson diagonalization with overlap
     ethr =  3.72E-10,  avg # of iterations =  5.6

     total cpu time spent up to now is       33.1 secs

     total energy              =   -2011.14668495 Ry
     estimated scf accuracy    <       0.00000030 Ry

     iteration # 13     ecut=    50.00 Ry     beta= 0.70
     Davidson diagonalization with overlap
     ethr =  9.34E-11,  avg # of iterations =  2.3

     total cpu time spent up to now is       35.1 secs

     total energy              =   -2011.14668496 Ry
     estimated scf accuracy    <       0.00000005 Ry

     iteration # 14     ecut=    50.00 Ry     beta= 0.70
     Davidson diagonalization with overlap
     ethr =  1.56E-11,  avg # of iterations =  5.7

     total cpu time spent up to now is       38.2 secs

     total energy              =   -2011.14668499 Ry
     estimated scf accuracy    <       0.00000003 Ry

     iteration # 15     ecut=    50.00 Ry     beta= 0.70
     Davidson diagonalization with overlap
     ethr =  9.14E-12,  avg # of iterations =  2.0

     total cpu time spent up to now is       40.0 secs

     total energy              =   -2011.14668498 Ry
     estimated scf accuracy    <          9.6E-09 Ry

     iteration # 16     ecut=    50.00 Ry     beta= 0.70
     Davidson diagonalization with overlap
     ethr =  3.00E-12,  avg # of iterations =  4.9

     total cpu time spent up to now is       42.6 secs

     End of self-consistent calculation

          k = 0.0000 0.0000 0.0000 ( 22983 PWs)   bands (ev):

   -35.5780 -35.5776 -35.5712 -35.5708 -35.4933 -35.4930 -35.4862 -35.4859
   -28.8734 -28.8714 -28.8665 -28.8645 -16.2053 -16.1890 -16.1441 -16.1059
   -16.1055 -16.0977 -16.0952 -16.0776 -16.0600 -16.0077 -15.9953 -15.9939
   -15.8124 -15.8105 -15.7997 -15.7968 -15.7938 -15.7866 -15.7814 -15.7805
   -15.7799 -15.7788 -15.7732 -15.7659 -15.7450 -15.7395 -15.7267 -15.6950
   -10.7414 -10.6940 -10.6929 -10.6898 -10.6797 -10.6633 -10.6518 -10.6388
   -10.6149 -10.6090 -10.4941 -10.4903  -7.3057  -7.2400  -7.1675  -7.1617
    -7.1183  -7.1106  -6.9614  -6.9368  -6.8066  -6.7919  -6.7727  -6.7690
    -6.0683  -6.0446  -6.0413  -6.0207  -6.0170  -6.0147  -5.9480  -5.9403
    -5.9260  -5.8925  -5.8817  -5.8759  -1.6025  -1.3990  -1.2739  -1.2523
    -1.1625  -1.1507  -1.1505  -1.1379  -1.1378  -1.0562  -1.0486  -0.8932
     5.0307   5.0564   5.0752   5.0974   5.1607   5.1772   5.1848   5.2683
     5.2861   5.3583   5.4005   5.4150   5.4164   5.5721   5.6838   5.7295
     6.0076   6.0737   6.4330   6.4456   6.5243   6.6304   6.6673   6.7634
     6.8004   6.8006   6.8455   6.8810   6.8932   6.9289   6.9596   6.9902
     7.0677   7.1182   7.1727   7.2021   7.2031   7.2387   7.2560   7.2996
     7.3335   7.3919   7.4372   7.5261   7.5798   7.6537   7.7531   7.7867
     7.7992   7.8297   7.8672   7.8675   7.9826   8.0495   8.1414   8.1864
     8.2222   8.2886   8.4122   8.4609   8.4729   8.4764   8.4980   8.5207
     8.5363   8.5900   8.6208   8.6393   8.6559   8.6953   8.8033   8.8545

     occupation numbers 
     1.0000   1.0000   1.0000   1.0000   1.0000   1.0000   1.0000   1.0000
     1.0000   1.0000   1.0000   1.0000   1.0000   1.0000   1.0000   1.0000
     1.0000   1.0000   1.0000   1.0000   1.0000   1.0000   1.0000   1.0000
     1.0000   1.0000   1.0000   1.0000   1.0000   1.0000   1.0000   1.0000
     1.0000   1.0000   1.0000   1.0000   1.0000   1.0000   1.0000   1.0000
     1.0000   1.0000   1.0000   1.0000   1.0000   1.0000   1.0000   1.0000
     1.0000   1.0000   1.0000   1.0000   1.0000   1.0000   1.0000   1.0000
     1.0000   1.0000   1.0000   1.0000   1.0000   1.0000   1.0000   1.0000
     1.0000   1.0000   1.0000   1.0000   1.0000   1.0000   1.0000   1.0000
     1.0000   1.0000   1.0000   1.0000   1.0000   1.0000   1.0000   1.0000
     1.0000   1.0000   1.0000   1.0000   1.0000   1.0000   1.0000   1.0000
     1.0000   1.0000   1.0000   1.0000   1.0000   1.0000   1.0000   1.0000
     1.0000   1.0000   1.0000   1.0000   1.0000   1.0000   1.0000   1.0000
     1.0000   1.0000   1.0000   1.0000   1.0000   1.0000   1.0000   1.0000
     1.0000   1.0000   1.0000   1.0000   1.0000   1.0000   1.0000   1.0000
     1.0000   1.0000   1.0000   1.0000   1.0000   1.0000   1.0000   1.0000
     1.0000   1.0000   1.0000   1.0000   1.0000   1.0000   1.0000   1.0000
     1.0000   1.0000   1.0000   1.0000   1.0000   1.0000   1.0000   1.0000
     1.0000   1.0000   1.0000   1.0000   1.0000   1.0000   1.0000   1.0000
     1.0000   1.0000   1.0000   1.0000   1.0000   1.0000   1.0000   1.0000

          k = 0.0000 0.0000 0.2554 ( 23013 PWs)   bands (ev):

   -35.5772 -35.5768 -35.5720 -35.5716 -35.4923 -35.4920 -35.4873 -35.4869
   -28.8734 -28.8714 -28.8666 -28.8644 -16.1889 -16.1670 -16.1372 -16.1060
   -16.1043 -16.0967 -16.0609 -16.0479 -16.0329 -16.0003 -15.9984 -15.9821
   -15.8798 -15.8277 -15.8193 -15.8111 -15.8103 -15.8090 -15.8013 -15.7960
   -15.7813 -15.7760 -15.7740 -15.7632 -15.7518 -15.7261 -15.7190 -15.6928
   -10.7397 -10.6925 -10.6919 -10.6884 -10.6797 -10.6634 -10.6514 -10.6388
   -10.6146 -10.6087 -10.4941 -10.4903  -7.2866  -7.2266  -7.1308  -7.1051
    -7.1036  -6.9882  -6.8638  -6.8629  -6.8082  -6.7970  -6.7108  -6.6951
    -6.1654  -6.1652  -6.1040  -6.0856  -6.0619  -6.0529  -6.0220  -6.0010
    -5.9485  -5.9411  -5.8889  -5.8835  -1.6014  -1.4010  -1.2736  -1.2528
    -1.1624  -1.1528  -1.1506  -1.1394  -1.1377  -1.0576  -1.0486  -0.8950
     5.0831   5.1491   5.1516   5.1639   5.1694   5.1822   5.2789   5.3364
     5.3915   5.4798   5.5103   5.5993   5.6025   5.6611   5.7840   5.8439
     5.9716   6.0147   6.1923   6.3137   6.4396   6.4822   6.5898   6.6916
     6.6931   6.7005   6.8218   6.8463   6.9250   6.9604   6.9961   7.0043
     7.0549   7.0692   7.0764   7.2016   7.2348   7.2620   7.2785   7.3418
     7.3983   7.4854   7.5256   7.5869   7.6535   7.6623   7.6858   7.7756
     7.7827   7.8000   7.8579   7.9149   7.9433   8.0411   8.1457   8.1771
     8.2015   8.2186   8.2424   8.2549   8.2941   8.3844   8.4347   8.4600
     8.5466   8.5544   8.5723   8.5993   8.6190   8.6983   8.7774   8.8292

     occupation numbers 
     1.0000   1.0000   1.0000   1.0000   1.0000   1.0000   1.0000   1.0000
     1.0000   1.0000   1.0000   1.0000   1.0000   1.0000   1.0000   1.0000
     1.0000   1.0000   1.0000   1.0000   1.0000   1.0000   1.0000   1.0000
     1.0000   1.0000   1.0000   1.0000   1.0000   1.0000   1.0000   1.0000
     1.0000   1.0000   1.0000   1.0000   1.0000   1.0000   1.0000   1.0000
     1.0000   1.0000   1.0000   1.0000   1.0000   1.0000   1.0000   1.0000
     1.0000   1.0000   1.0000   1.0000   1.0000   1.0000   1.0000   1.0000
     1.0000   1.0000   1.0000   1.0000   1.0000   1.0000   1.0000   1.0000
     1.0000   1.0000   1.0000   1.0000   1.0000   1.0000   1.0000   1.0000
     1.0000   1.0000   1.0000   1.0000   1.0000   1.0000   1.0000   1.0000
     1.0000   1.0000   1.0000   1.0000   1.0000   1.0000   1.0000   1.0000
     1.0000   1.0000   1.0000   1.0000   1.0000   1.0000   1.0000   1.0000
     1.0000   1.0000   1.0000   1.0000   1.0000   1.0000   1.0000   1.0000
     1.0000   1.0000   1.0000   1.0000   1.0000   1.0000   1.0000   1.0000
     1.0000   1.0000   1.0000   1.0000   1.0000   1.0000   1.0000   1.0000
     1.0000   1.0000   1.0000   1.0000   1.0000   1.0000   1.0000   1.0000
     1.0000   1.0000   1.0000   1.0000   1.0000   1.0000   1.0000   1.0000
     1.0000   1.0000   1.0000   1.0000   1.0000   1.0000   1.0000   1.0000
     1.0000   1.0000   1.0000   1.0000   1.0000   1.0000   1.0000   1.0000
     1.0000   1.0000   1.0000   1.0000   1.0000   1.0000   1.0000   1.0000

          k = 0.0000 0.0000-0.5108 ( 22958 PWs)   bands (ev):

   -35.5760 -35.5757 -35.5731 -35.5728 -35.4902 -35.4899 -35.4893 -35.4890
   -28.8734 -28.8714 -28.8666 -28.8644 -16.1887 -16.1324 -16.1073 -16.1066
   -16.1008 -16.1003 -16.0319 -16.0271 -15.9813 -15.9738 -15.9710 -15.9401
   -15.9304 -15.9198 -15.8910 -15.8901 -15.8072 -15.8056 -15.8049 -15.7993
   -15.7812 -15.7730 -15.7710 -15.7668 -15.7580 -15.7256 -15.7039 -15.6913
   -10.7381 -10.6912 -10.6907 -10.6870 -10.6797 -10.6634 -10.6510 -10.6388
   -10.6142 -10.6084 -10.4941 -10.4903  -7.3202  -7.1835  -7.1229  -7.0696
    -7.0409  -6.8187  -6.8165  -6.8147  -6.6720  -6.6567  -6.4923  -6.4563
    -6.4501  -6.4257  -6.4035  -6.3901  -6.1034  -6.0510  -6.0336  -5.9839
    -5.9567  -5.9503  -5.8930  -5.8774  -1.6002  -1.4031  -1.2734  -1.2533
    -1.1624  -1.1530  -1.1526  -1.1408  -1.1375  -1.0591  -1.0487  -0.8967
     5.1484   5.1692   5.1722   5.1758   5.1985   5.3642   5.4303   5.4573
     5.4968   5.5098   5.5608   5.5920   5.6657   5.8291   5.8463   5.8833
     6.1753   6.2451   6.2931   6.3484   6.3920   6.4566   6.5141   6.5552
     6.5806   6.6818   6.7154   6.7185   6.7891   6.8663   6.9888   6.9907
     7.0271   7.0569   7.1163   7.2181   7.2403   7.2764   7.3175   7.3499
     7.3932   7.4449   7.4482   7.4926   7.5095   7.5468   7.5921   7.6635
     7.7296   7.7453   7.7856   7.7901   7.9384   8.1768   8.2051   8.2207
     8.2378   8.2775   8.3037   8.3051   8.3410   8.3646   8.3858   8.3864
     8.4061   8.4783   8.4846   8.4921   8.5921   8.6140   8.7417   8.7987

     occupation numbers 
     1.0000   1.0000   1.0000   1.0000   1.0000   1.0000   1.0000   1.0000
     1.0000   1.0000   1.0000   1.0000   1.0000   1.0000   1.0000   1.0000
     1.0000   1.0000   1.0000   1.0000   1.0000   1.0000   1.0000   1.0000
     1.0000   1.0000   1.0000   1.0000   1.0000   1.0000   1.0000   1.0000
     1.0000   1.0000   1.0000   1.0000   1.0000   1.0000   1.0000   1.0000
     1.0000   1.0000   1.0000   1.0000   1.0000   1.0000   1.0000   1.0000
     1.0000   1.0000   1.0000   1.0000   1.0000   1.0000   1.0000   1.0000
     1.0000   1.0000   1.0000   1.0000   1.0000   1.0000   1.0000   1.0000
     1.0000   1.0000   1.0000   1.0000   1.0000   1.0000   1.0000   1.0000
     1.0000   1.0000   1.0000   1.0000   1.0000   1.0000   1.0000   1.0000
     1.0000   1.0000   1.0000   1.0000   1.0000   1.0000   1.0000   1.0000
     1.0000   1.0000   1.0000   1.0000   1.0000   1.0000   1.0000   1.0000
     1.0000   1.0000   1.0000   1.0000   1.0000   1.0000   1.0000   1.0000
     1.0000   1.0000   1.0000   1.0000   1.0000   1.0000   1.0000   1.0000
     1.0000   1.0000   1.0000   1.0000   1.0000   1.0000   1.0000   1.0000
     1.0000   1.0000   1.0000   1.0000   1.0000   1.0000   1.0000   1.0000
     1.0000   1.0000   1.0000   1.0000   1.0000   1.0000   1.0000   1.0000
     1.0000   1.0000   1.0000   1.0000   1.0000   1.0000   1.0000   1.0000
     1.0000   1.0000   1.0000   1.0000   1.0000   1.0000   1.0000   1.0000
     1.0000   1.0000   1.0000   1.0000   1.0000   1.0000   1.0000   1.0000

          k = 0.0000 0.2522 0.0000 ( 22989 PWs)   bands (ev):

   -35.5779 -35.5776 -35.5711 -35.5708 -35.4933 -35.4931 -35.4862 -35.4860
   -28.8730 -28.8715 -28.8665 -28.8649 -16.1941 -16.1650 -16.1315 -16.0925
   -16.0836 -16.0662 -16.0656 -16.0586 -16.0577 -16.0150 -16.0059 -15.9944
   -15.8860 -15.8536 -15.8456 -15.8374 -15.7944 -15.7879 -15.7842 -15.7808
   -15.7778 -15.7737 -15.7562 -15.7441 -15.7403 -15.7399 -15.7277 -15.7024
   -10.7339 -10.7010 -10.6846 -10.6712 -10.6699 -10.6609 -10.6388 -10.6376
   -10.6194 -10.6132 -10.5175 -10.5114  -7.2626  -7.1956  -7.0721  -7.0578
    -7.0413  -6.9664  -6.9219  -6.9070  -6.8106  -6.7691  -6.7678  -6.7601
    -6.2407  -6.2146  -6.2079  -6.1861  -6.0065  -6.0061  -5.9534  -5.9498
    -5.9184  -5.9107  -5.8918  -5.8880  -1.5497  -1.3874  -1.3044  -1.2609
    -1.2389  -1.1265  -1.1248  -1.1093  -1.1079  -1.0766  -1.0637  -0.9228
     5.1023   5.1351   5.1382   5.1457   5.1594   5.3619   5.3709   5.3831
     5.4322   5.4575   5.5003   5.5374   5.5913   5.6542   5.7371   5.8414
     5.9081   6.1290   6.1761   6.2199   6.3194   6.3451   6.5170   6.7259
     6.7888   6.8145   6.8772   6.9204   6.9286   6.9291   6.9426   7.0450
     7.0451   7.1484   7.1885   7.2013   7.2504   7.2670   7.2726   7.3376
     7.3381   7.3443   7.5392   7.5842   7.6917   7.7312   7.7377   7.7428
     7.7960   7.8080   7.8408   7.8817   7.9768   7.9904   8.0191   8.0196
     8.1566   8.1870   8.2502   8.3100   8.4223   8.4549   8.4680   8.5151
     8.5218   8.5308   8.5876   8.5888   8.6153   8.6339   8.7633   8.7637

     occupation numbers 
     1.0000   1.0000   1.0000   1.0000   1.0000   1.0000   1.0000   1.0000
     1.0000   1.0000   1.0000   1.0000   1.0000   1.0000   1.0000   1.0000
     1.0000   1.0000   1.0000   1.0000   1.0000   1.0000   1.0000   1.0000
     1.0000   1.0000   1.0000   1.0000   1.0000   1.0000   1.0000   1.0000
     1.0000   1.0000   1.0000   1.0000   1.0000   1.0000   1.0000   1.0000
     1.0000   1.0000   1.0000   1.0000   1.0000   1.0000   1.0000   1.0000
     1.0000   1.0000   1.0000   1.0000   1.0000   1.0000   1.0000   1.0000
     1.0000   1.0000   1.0000   1.0000   1.0000   1.0000   1.0000   1.0000
     1.0000   1.0000   1.0000   1.0000   1.0000   1.0000   1.0000   1.0000
     1.0000   1.0000   1.0000   1.0000   1.0000   1.0000   1.0000   1.0000
     1.0000   1.0000   1.0000   1.0000   1.0000   1.0000   1.0000   1.0000
     1.0000   1.0000   1.0000   1.0000   1.0000   1.0000   1.0000   1.0000
     1.0000   1.0000   1.0000   1.0000   1.0000   1.0000   1.0000   1.0000
     1.0000   1.0000   1.0000   1.0000   1.0000   1.0000   1.0000   1.0000
     1.0000   1.0000   1.0000   1.0000   1.0000   1.0000   1.0000   1.0000
     1.0000   1.0000   1.0000   1.0000   1.0000   1.0000   1.0000   1.0000
     1.0000   1.0000   1.0000   1.0000   1.0000   1.0000   1.0000   1.0000
     1.0000   1.0000   1.0000   1.0000   1.0000   1.0000   1.0000   1.0000
     1.0000   1.0000   1.0000   1.0000   1.0000   1.0000   1.0000   1.0000
     1.0000   1.0000   1.0000   1.0000   1.0000   1.0000   1.0000   1.0000

          k = 0.0000 0.2522 0.2554 ( 22983 PWs)   bands (ev):

   -35.5771 -35.5768 -35.5719 -35.5716 -35.4923 -35.4921 -35.4873 -35.4870
   -28.8730 -28.8715 -28.8665 -28.8649 -16.1576 -16.1564 -16.1230 -16.0692
   -16.0678 -16.0603 -16.0596 -16.0492 -16.0345 -16.0120 -15.9986 -15.9876
   -15.9031 -15.8544 -15.8477 -15.8436 -15.8402 -15.8332 -15.8180 -15.8122
   -15.7819 -15.7772 -15.7608 -15.7540 -15.7535 -15.7182 -15.7063 -15.7007
   -10.7325 -10.7002 -10.6832 -10.6701 -10.6697 -10.6608 -10.6387 -10.6373
   -10.6190 -10.6129 -10.5172 -10.5112  -7.1705  -7.1484  -7.0415  -7.0089
    -6.9671  -6.9496  -6.8413  -6.8383  -6.8241  -6.7787  -6.7074  -6.6960
    -6.2483  -6.2381  -6.1957  -6.1722  -6.1621  -6.1620  -6.0979  -6.0553
    -5.9512  -5.9417  -5.9013  -5.8940  -1.5489  -1.3891  -1.3048  -1.2612
    -1.2393  -1.1276  -1.1252  -1.1099  -1.1080  -1.0766  -1.0647  -0.9242
     5.1287   5.1496   5.2473   5.3353   5.3660   5.3802   5.4176   5.4830
     5.5161   5.5546   5.5751   5.6648   5.6819   5.7350   5.8319   5.8642
     5.9802   6.1240   6.1785   6.2233   6.2737   6.3473   6.4153   6.5026
     6.5205   6.6486   6.7423   6.8173   6.8556   6.9365   6.9575   7.0110
     7.0273   7.0685   7.0794   7.0977   7.2495   7.3210   7.3519   7.4329
     7.4461   7.4994   7.5944   7.6064   7.6757   7.7567   7.7770   7.7880
     7.8060   7.8258   7.8627   7.9000   7.9685   7.9731   8.0150   8.0394
     8.0637   8.1157   8.1419   8.1872   8.2334   8.3065   8.3116   8.4741
     8.4814   8.5310   8.5631   8.5683   8.6069   8.6629   8.7382   8.7386

     occupation numbers 
     1.0000   1.0000   1.0000   1.0000   1.0000   1.0000   1.0000   1.0000
     1.0000   1.0000   1.0000   1.0000   1.0000   1.0000   1.0000   1.0000
     1.0000   1.0000   1.0000   1.0000   1.0000   1.0000   1.0000   1.0000
     1.0000   1.0000   1.0000   1.0000   1.0000   1.0000   1.0000   1.0000
     1.0000   1.0000   1.0000   1.0000   1.0000   1.0000   1.0000   1.0000
     1.0000   1.0000   1.0000   1.0000   1.0000   1.0000   1.0000   1.0000
     1.0000   1.0000   1.0000   1.0000   1.0000   1.0000   1.0000   1.0000
     1.0000   1.0000   1.0000   1.0000   1.0000   1.0000   1.0000   1.0000
     1.0000   1.0000   1.0000   1.0000   1.0000   1.0000   1.0000   1.0000
     1.0000   1.0000   1.0000   1.0000   1.0000   1.0000   1.0000   1.0000
     1.0000   1.0000   1.0000   1.0000   1.0000   1.0000   1.0000   1.0000
     1.0000   1.0000   1.0000   1.0000   1.0000   1.0000   1.0000   1.0000
     1.0000   1.0000   1.0000   1.0000   1.0000   1.0000   1.0000   1.0000
     1.0000   1.0000   1.0000   1.0000   1.0000   1.0000   1.0000   1.0000
     1.0000   1.0000   1.0000   1.0000   1.0000   1.0000   1.0000   1.0000
     1.0000   1.0000   1.0000   1.0000   1.0000   1.0000   1.0000   1.0000
     1.0000   1.0000   1.0000   1.0000   1.0000   1.0000   1.0000   1.0000
     1.0000   1.0000   1.0000   1.0000   1.0000   1.0000   1.0000   1.0000
     1.0000   1.0000   1.0000   1.0000   1.0000   1.0000   1.0000   1.0000
     1.0000   1.0000   1.0000   1.0000   1.0000   1.0000   1.0000   1.0000

          k = 0.0000 0.2522-0.5108 ( 23002 PWs)   bands (ev):

   -35.5759 -35.5757 -35.5731 -35.5728 -35.4902 -35.4900 -35.4893 -35.4891
   -28.8729 -28.8715 -28.8665 -28.8649 -16.1531 -16.1171 -16.0987 -16.0681
   -16.0637 -16.0635 -16.0312 -16.0260 -16.0035 -15.9734 -15.9714 -15.9387
   -15.9365 -15.9319 -15.8952 -15.8924 -15.8593 -15.8498 -15.8457 -15.8429
   -15.7796 -15.7742 -15.7648 -15.7590 -15.7535 -15.7147 -15.6992 -15.6926
   -10.7311 -10.6995 -10.6819 -10.6696 -10.6691 -10.6607 -10.6387 -10.6369
   -10.6186 -10.6126 -10.5170 -10.5110  -7.1936  -7.0419  -6.9977  -6.9755
    -6.9338  -6.8392  -6.8136  -6.7704  -6.6933  -6.6530  -6.4855  -6.4555
    -6.4455  -6.4284  -6.4253  -6.3956  -6.2613  -6.2089  -6.2073  -6.1538
    -5.9529  -5.9451  -5.9055  -5.8932  -1.5481  -1.3908  -1.3053  -1.2614
    -1.2395  -1.1286  -1.1255  -1.1104  -1.1081  -1.0765  -1.0658  -0.9254
     5.1946   5.2345   5.2784   5.3735   5.4229   5.4347   5.4806   5.5219
     5.6625   5.7058   5.7288   5.7680   5.8143   5.8192   5.8319   6.0960
     6.1356   6.1947   6.2191   6.2701   6.2936   6.3695   6.3810   6.4185
     6.4293   6.5890   6.6282   6.6938   6.7123   6.8630   6.8787   6.8877
     6.9470   7.0356   7.0548   7.0905   7.2073   7.2247   7.2671   7.4057
     7.4954   7.5158   7.5266   7.5702   7.5980   7.6131   7.6352   7.7104
     7.7177   7.7556   7.7914   7.8494   7.9446   8.0420   8.0618   8.0835
     8.1590   8.1649   8.2036   8.2606   8.2913   8.3015   8.3577   8.3889
     8.4248   8.4699   8.4952   8.5121   8.5593   8.5927   8.6909   8.6974

     occupation numbers 
     1.0000   1.0000   1.0000   1.0000   1.0000   1.0000   1.0000   1.0000
     1.0000   1.0000   1.0000   1.0000   1.0000   1.0000   1.0000   1.0000
     1.0000   1.0000   1.0000   1.0000   1.0000   1.0000   1.0000   1.0000
     1.0000   1.0000   1.0000   1.0000   1.0000   1.0000   1.0000   1.0000
     1.0000   1.0000   1.0000   1.0000   1.0000   1.0000   1.0000   1.0000
     1.0000   1.0000   1.0000   1.0000   1.0000   1.0000   1.0000   1.0000
     1.0000   1.0000   1.0000   1.0000   1.0000   1.0000   1.0000   1.0000
     1.0000   1.0000   1.0000   1.0000   1.0000   1.0000   1.0000   1.0000
     1.0000   1.0000   1.0000   1.0000   1.0000   1.0000   1.0000   1.0000
     1.0000   1.0000   1.0000   1.0000   1.0000   1.0000   1.0000   1.0000
     1.0000   1.0000   1.0000   1.0000   1.0000   1.0000   1.0000   1.0000
     1.0000   1.0000   1.0000   1.0000   1.0000   1.0000   1.0000   1.0000
     1.0000   1.0000   1.0000   1.0000   1.0000   1.0000   1.0000   1.0000
     1.0000   1.0000   1.0000   1.0000   1.0000   1.0000   1.0000   1.0000
     1.0000   1.0000   1.0000   1.0000   1.0000   1.0000   1.0000   1.0000
     1.0000   1.0000   1.0000   1.0000   1.0000   1.0000   1.0000   1.0000
     1.0000   1.0000   1.0000   1.0000   1.0000   1.0000   1.0000   1.0000
     1.0000   1.0000   1.0000   1.0000   1.0000   1.0000   1.0000   1.0000
     1.0000   1.0000   1.0000   1.0000   1.0000   1.0000   1.0000   1.0000
     1.0000   1.0000   1.0000   1.0000   1.0000   1.0000   1.0000   1.0000

          k = 0.0000 0.2522-0.2554 ( 22983 PWs)   bands (ev):

   -35.5771 -35.5768 -35.5719 -35.5716 -35.4923 -35.4921 -35.4873 -35.4870
   -28.8730 -28.8715 -28.8665 -28.8649 -16.1576 -16.1564 -16.1230 -16.0692
   -16.0678 -16.0603 -16.0596 -16.0492 -16.0345 -16.0120 -15.9986 -15.9876
   -15.9031 -15.8544 -15.8477 -15.8436 -15.8402 -15.8332 -15.8180 -15.8122
   -15.7819 -15.7772 -15.7608 -15.7540 -15.7535 -15.7182 -15.7063 -15.7007
   -10.7325 -10.7002 -10.6832 -10.6701 -10.6697 -10.6608 -10.6387 -10.6373
   -10.6190 -10.6129 -10.5172 -10.5112  -7.1706  -7.1484  -7.0415  -7.0089
    -6.9671  -6.9496  -6.8413  -6.8383  -6.8241  -6.7787  -6.7074  -6.6960
    -6.2483  -6.2381  -6.1957  -6.1722  -6.1621  -6.1620  -6.0980  -6.0553
    -5.9513  -5.9417  -5.9013  -5.8940  -1.5489  -1.3891  -1.3048  -1.2612
    -1.2393  -1.1276  -1.1252  -1.1099  -1.1080  -1.0766  -1.0647  -0.9242
     5.1287   5.1495   5.2473   5.3353   5.3660   5.3802   5.4176   5.4830
     5.5161   5.5546   5.5751   5.6648   5.6818   5.7350   5.8319   5.8642
     5.9802   6.1240   6.1784   6.2233   6.2737   6.3472   6.4153   6.5028
     6.5205   6.6485   6.7423   6.8172   6.8554   6.9366   6.9576   7.0111
     7.0272   7.0685   7.0794   7.0977   7.2495   7.3210   7.3519   7.4329
     7.4462   7.4992   7.5944   7.6065   7.6757   7.7567   7.7770   7.7880
     7.8060   7.8257   7.8628   7.9001   7.9685   7.9731   8.0149   8.0394
     8.0637   8.1157   8.1418   8.1872   8.2333   8.3065   8.3116   8.4742
     8.4814   8.5310   8.5631   8.5684   8.6068   8.6629   8.7382   8.7386

     occupation numbers 
     1.0000   1.0000   1.0000   1.0000   1.0000   1.0000   1.0000   1.0000
     1.0000   1.0000   1.0000   1.0000   1.0000   1.0000   1.0000   1.0000
     1.0000   1.0000   1.0000   1.0000   1.0000   1.0000   1.0000   1.0000
     1.0000   1.0000   1.0000   1.0000   1.0000   1.0000   1.0000   1.0000
     1.0000   1.0000   1.0000   1.0000   1.0000   1.0000   1.0000   1.0000
     1.0000   1.0000   1.0000   1.0000   1.0000   1.0000   1.0000   1.0000
     1.0000   1.0000   1.0000   1.0000   1.0000   1.0000   1.0000   1.0000
     1.0000   1.0000   1.0000   1.0000   1.0000   1.0000   1.0000   1.0000
     1.0000   1.0000   1.0000   1.0000   1.0000   1.0000   1.0000   1.0000
     1.0000   1.0000   1.0000   1.0000   1.0000   1.0000   1.0000   1.0000
     1.0000   1.0000   1.0000   1.0000   1.0000   1.0000   1.0000   1.0000
     1.0000   1.0000   1.0000   1.0000   1.0000   1.0000   1.0000   1.0000
     1.0000   1.0000   1.0000   1.0000   1.0000   1.0000   1.0000   1.0000
     1.0000   1.0000   1.0000   1.0000   1.0000   1.0000   1.0000   1.0000
     1.0000   1.0000   1.0000   1.0000   1.0000   1.0000   1.0000   1.0000
     1.0000   1.0000   1.0000   1.0000   1.0000   1.0000   1.0000   1.0000
     1.0000   1.0000   1.0000   1.0000   1.0000   1.0000   1.0000   1.0000
     1.0000   1.0000   1.0000   1.0000   1.0000   1.0000   1.0000   1.0000
     1.0000   1.0000   1.0000   1.0000   1.0000   1.0000   1.0000   1.0000
     1.0000   1.0000   1.0000   1.0000   1.0000   1.0000   1.0000   1.0000

          k = 0.0000-0.5043 0.0000 ( 22988 PWs)   bands (ev):

   -35.5777 -35.5777 -35.5709 -35.5709 -35.4933 -35.4932 -35.4862 -35.4862
   -28.8721 -28.8719 -28.8659 -28.8658 -16.1688 -16.1687 -16.0994 -16.0994
   -16.0508 -16.0507 -16.0216 -16.0216 -16.0080 -16.0080 -15.9820 -15.9820
   -15.9467 -15.9467 -15.9185 -15.9185 -15.7912 -15.7911 -15.7830 -15.7830
   -15.7756 -15.7756 -15.7423 -15.7422 -15.7312 -15.7312 -15.7217 -15.7217
   -10.7173 -10.7172 -10.6665 -10.6663 -10.6590 -10.6589 -10.6211 -10.6210
   -10.6192 -10.6192 -10.5465 -10.5464  -7.2092  -7.2091  -6.9958  -6.9957
    -6.8656  -6.8656  -6.8050  -6.8049  -6.6153  -6.6152  -6.5866  -6.5866
    -6.5840  -6.5840  -6.5607  -6.5607  -5.9925  -5.9924  -5.9561  -5.9561
    -5.9254  -5.9254  -5.9031  -5.9030  -1.4161  -1.4160  -1.3531  -1.3530
    -1.1804  -1.1803  -1.0968  -1.0968  -1.0875  -1.0874  -1.0067  -1.0066
     5.1678   5.1678   5.1825   5.1825   5.3890   5.3891   5.5072   5.5073
     5.5413   5.5413   5.5698   5.5699   5.7179   5.7180   6.0023   6.0025
     6.0189   6.0189   6.2016   6.2016   6.2851   6.2851   6.5782   6.5782
     6.6821   6.6823   6.7727   6.7727   6.9465   6.9465   7.0085   7.0085
     7.0740   7.0740   7.0980   7.0983   7.2163   7.2163   7.3706   7.3706
     7.4610   7.4611   7.4622   7.4623   7.5125   7.5126   7.6480   7.6480
     7.7366   7.7368   7.8036   7.8037   7.8537   7.8538   8.2482   8.2482
     8.3086   8.3087   8.3358   8.3358   8.3838   8.3839   8.4062   8.4062
     8.4495   8.4496   8.4693   8.4694   8.5561   8.5561   8.6624   8.6626

     occupation numbers 
     1.0000   1.0000   1.0000   1.0000   1.0000   1.0000   1.0000   1.0000
     1.0000   1.0000   1.0000   1.0000   1.0000   1.0000   1.0000   1.0000
     1.0000   1.0000   1.0000   1.0000   1.0000   1.0000   1.0000   1.0000
     1.0000   1.0000   1.0000   1.0000   1.0000   1.0000   1.0000   1.0000
     1.0000   1.0000   1.0000   1.0000   1.0000   1.0000   1.0000   1.0000
     1.0000   1.0000   1.0000   1.0000   1.0000   1.0000   1.0000   1.0000
     1.0000   1.0000   1.0000   1.0000   1.0000   1.0000   1.0000   1.0000
     1.0000   1.0000   1.0000   1.0000   1.0000   1.0000   1.0000   1.0000
     1.0000   1.0000   1.0000   1.0000   1.0000   1.0000   1.0000   1.0000
     1.0000   1.0000   1.0000   1.0000   1.0000   1.0000   1.0000   1.0000
     1.0000   1.0000   1.0000   1.0000   1.0000   1.0000   1.0000   1.0000
     1.0000   1.0000   1.0000   1.0000   1.0000   1.0000   1.0000   1.0000
     1.0000   1.0000   1.0000   1.0000   1.0000   1.0000   1.0000   1.0000
     1.0000   1.0000   1.0000   1.0000   1.0000   1.0000   1.0000   1.0000
     1.0000   1.0000   1.0000   1.0000   1.0000   1.0000   1.0000   1.0000
     1.0000   1.0000   1.0000   1.0000   1.0000   1.0000   1.0000   1.0000
     1.0000   1.0000   1.0000   1.0000   1.0000   1.0000   1.0000   1.0000
     1.0000   1.0000   1.0000   1.0000   1.0000   1.0000   1.0000   1.0000
     1.0000   1.0000   1.0000   1.0000   1.0000   1.0000   1.0000   1.0000
     1.0000   1.0000   1.0000   1.0000   1.0000   1.0000   1.0000   1.0000

          k = 0.0000-0.5043 0.2554 ( 22998 PWs)   bands (ev):

   -35.5769 -35.5769 -35.5717 -35.5717 -35.4922 -35.4922 -35.4872 -35.4872
   -28.8721 -28.8720 -28.8659 -28.8658 -16.1362 -16.1362 -16.0824 -16.0824
   -16.0386 -16.0386 -16.0140 -16.0140 -15.9998 -15.9997 -15.9844 -15.9844
   -15.9452 -15.9452 -15.9203 -15.9202 -15.8494 -15.8494 -15.8151 -15.8151
   -15.7798 -15.7798 -15.7568 -15.7567 -15.7234 -15.7234 -15.7048 -15.7048
   -10.7163 -10.7161 -10.6658 -10.6657 -10.6588 -10.6587 -10.6207 -10.6206
   -10.6191 -10.6191 -10.5458 -10.5457  -7.0790  -7.0789  -6.9202  -6.9202
    -6.8807  -6.8807  -6.7388  -6.7388  -6.6047  -6.6047  -6.5896  -6.5896
    -6.5754  -6.5753  -6.5539  -6.5539  -6.1633  -6.1633  -6.0769  -6.0769
    -5.9490  -5.9489  -5.9101  -5.9101  -1.4159  -1.4158  -1.3541  -1.3541
    -1.1805  -1.1804  -1.0976  -1.0976  -1.0877  -1.0876  -1.0071  -1.0071
     5.1779   5.1779   5.3952   5.3953   5.5201   5.5201   5.6052   5.6052
     5.6414   5.6414   5.6725   5.6725   5.7430   5.7431   5.9698   5.9698
     6.1497   6.1498   6.2299   6.2299   6.2864   6.2864   6.4592   6.4593
     6.6146   6.6148   6.6767   6.6769   6.7332   6.7334   6.8656   6.8657
     6.9439   6.9439   7.0972   7.0973   7.1921   7.1922   7.2657   7.2659
     7.4954   7.4955   7.5284   7.5286   7.6367   7.6368   7.7214   7.7215
     7.8210   7.8210   7.8710   7.8711   7.9124   7.9125   8.0767   8.0768
     8.1454   8.1456   8.2934   8.2935   8.3179   8.3180   8.3676   8.3678
     8.3958   8.3958   8.4353   8.4353   8.5935   8.5936   8.6563   8.6565

     occupation numbers 
     1.0000   1.0000   1.0000   1.0000   1.0000   1.0000   1.0000   1.0000
     1.0000   1.0000   1.0000   1.0000   1.0000   1.0000   1.0000   1.0000
     1.0000   1.0000   1.0000   1.0000   1.0000   1.0000   1.0000   1.0000
     1.0000   1.0000   1.0000   1.0000   1.0000   1.0000   1.0000   1.0000
     1.0000   1.0000   1.0000   1.0000   1.0000   1.0000   1.0000   1.0000
     1.0000   1.0000   1.0000   1.0000   1.0000   1.0000   1.0000   1.0000
     1.0000   1.0000   1.0000   1.0000   1.0000   1.0000   1.0000   1.0000
     1.0000   1.0000   1.0000   1.0000   1.0000   1.0000   1.0000   1.0000
     1.0000   1.0000   1.0000   1.0000   1.0000   1.0000   1.0000   1.0000
     1.0000   1.0000   1.0000   1.0000   1.0000   1.0000   1.0000   1.0000
     1.0000   1.0000   1.0000   1.0000   1.0000   1.0000   1.0000   1.0000
     1.0000   1.0000   1.0000   1.0000   1.0000   1.0000   1.0000   1.0000
     1.0000   1.0000   1.0000   1.0000   1.0000   1.0000   1.0000   1.0000
     1.0000   1.0000   1.0000   1.0000   1.0000   1.0000   1.0000   1.0000
     1.0000   1.0000   1.0000   1.0000   1.0000   1.0000   1.0000   1.0000
     1.0000   1.0000   1.0000   1.0000   1.0000   1.0000   1.0000   1.0000
     1.0000   1.0000   1.0000   1.0000   1.0000   1.0000   1.0000   1.0000
     1.0000   1.0000   1.0000   1.0000   1.0000   1.0000   1.0000   1.0000
     1.0000   1.0000   1.0000   1.0000   1.0000   1.0000   1.0000   1.0000
     1.0000   1.0000   1.0000   1.0000   1.0000   1.0000   1.0000   1.0000

          k = 0.0000-0.5043-0.5108 ( 23008 PWs)   bands (ev):

   -35.5758 -35.5758 -35.5729 -35.5729 -35.4902 -35.4902 -35.4893 -35.4893
   -28.8721 -28.8720 -28.8659 -28.8658 -16.0986 -16.0986 -16.0671 -16.0671
   -16.0323 -16.0323 -15.9913 -15.9913 -15.9721 -15.9721 -15.9683 -15.9683
   -15.9357 -15.9357 -15.9230 -15.9230 -15.9221 -15.9220 -15.8933 -15.8932
   -15.7769 -15.7768 -15.7618 -15.7618 -15.7223 -15.7222 -15.6950 -15.6950
   -10.7153 -10.7151 -10.6652 -10.6651 -10.6586 -10.6585 -10.6204 -10.6203
   -10.6190 -10.6190 -10.5451 -10.5451  -6.9552  -6.9552  -6.9023  -6.9023
    -6.7572  -6.7572  -6.6035  -6.6035  -6.5931  -6.5930  -6.5817  -6.5817
    -6.5404  -6.5404  -6.4684  -6.4683  -6.4126  -6.4126  -6.4101  -6.4101
    -5.9347  -5.9347  -5.9246  -5.9246  -1.4157  -1.4156  -1.3552  -1.3551
    -1.1805  -1.1805  -1.0982  -1.0981  -1.0881  -1.0880  -1.0075  -1.0075
     5.2131   5.2132   5.4067   5.4067   5.6736   5.6737   5.7095   5.7095
     5.7665   5.7665   5.9040   5.9040   5.9312   5.9312   6.0494   6.0497
     6.1063   6.1063   6.2805   6.2807   6.3035   6.3036   6.4378   6.4379
     6.4641   6.4643   6.6652   6.6654   6.6692   6.6692   6.7157   6.7157
     6.8364   6.8365   7.0441   7.0443   7.0811   7.0812   7.2347   7.2348
     7.3441   7.3441   7.4585   7.4586   7.5601   7.5601   7.6652   7.6652
     7.7987   7.7988   7.9541   7.9541   7.9714   7.9715   7.9860   7.9861
     8.1930   8.1932   8.2806   8.2807   8.3383   8.3383   8.4041   8.4043
     8.4193   8.4193   8.4588   8.4589   8.4805   8.4806   8.5789   8.5790

     occupation numbers 
     1.0000   1.0000   1.0000   1.0000   1.0000   1.0000   1.0000   1.0000
     1.0000   1.0000   1.0000   1.0000   1.0000   1.0000   1.0000   1.0000
     1.0000   1.0000   1.0000   1.0000   1.0000   1.0000   1.0000   1.0000
     1.0000   1.0000   1.0000   1.0000   1.0000   1.0000   1.0000   1.0000
     1.0000   1.0000   1.0000   1.0000   1.0000   1.0000   1.0000   1.0000
     1.0000   1.0000   1.0000   1.0000   1.0000   1.0000   1.0000   1.0000
     1.0000   1.0000   1.0000   1.0000   1.0000   1.0000   1.0000   1.0000
     1.0000   1.0000   1.0000   1.0000   1.0000   1.0000   1.0000   1.0000
     1.0000   1.0000   1.0000   1.0000   1.0000   1.0000   1.0000   1.0000
     1.0000   1.0000   1.0000   1.0000   1.0000   1.0000   1.0000   1.0000
     1.0000   1.0000   1.0000   1.0000   1.0000   1.0000   1.0000   1.0000
     1.0000   1.0000   1.0000   1.0000   1.0000   1.0000   1.0000   1.0000
     1.0000   1.0000   1.0000   1.0000   1.0000   1.0000   1.0000   1.0000
     1.0000   1.0000   1.0000   1.0000   1.0000   1.0000   1.0000   1.0000
     1.0000   1.0000   1.0000   1.0000   1.0000   1.0000   1.0000   1.0000
     1.0000   1.0000   1.0000   1.0000   1.0000   1.0000   1.0000   1.0000
     1.0000   1.0000   1.0000   1.0000   1.0000   1.0000   1.0000   1.0000
     1.0000   1.0000   1.0000   1.0000   1.0000   1.0000   1.0000   1.0000
     1.0000   1.0000   1.0000   1.0000   1.0000   1.0000   1.0000   1.0000
     1.0000   1.0000   1.0000   1.0000   1.0000   1.0000   1.0000   1.0000

          k = 0.2500 0.0000 0.0000 ( 23008 PWs)   bands (ev):

   -35.5779 -35.5776 -35.5711 -35.5709 -35.4933 -35.4931 -35.4862 -35.4860
   -28.8731 -28.8717 -28.8663 -28.8647 -16.1943 -16.1780 -16.1472 -16.1195
   -16.1040 -16.0967 -16.0863 -16.0760 -16.0455 -15.9764 -15.9722 -15.9635
   -15.8528 -15.8156 -15.8129 -15.8126 -15.8090 -15.8056 -15.7988 -15.7946
   -15.7816 -15.7798 -15.7701 -15.7534 -15.7513 -15.7328 -15.7251 -15.6985
   -10.7335 -10.6987 -10.6888 -10.6843 -10.6737 -10.6671 -10.6579 -10.6448
   -10.6140 -10.6099 -10.4936 -10.4909  -7.2829  -7.2346  -7.1515  -7.1476
    -7.1190  -7.1153  -6.9502  -6.9292  -6.6914  -6.6880  -6.6870  -6.6858
    -6.1169  -6.0918  -6.0643  -6.0572  -6.0476  -6.0374  -6.0187  -6.0186
    -5.9720  -5.9676  -5.9211  -5.8829  -1.5400  -1.3807  -1.2922  -1.2140
    -1.2083  -1.1539  -1.1481  -1.1375  -1.1298  -1.0717  -1.0708  -0.9448
     5.0610   5.0730   5.1433   5.1669   5.1767   5.2718   5.2854   5.2899
     5.3102   5.4533   5.4607   5.6271   5.6392   5.6569   5.8294   5.9469
     6.1015   6.1134   6.2325   6.4026   6.4460   6.5297   6.5951   6.6096
     6.6497   6.6548   6.8305   6.8342   6.8780   6.9079   6.9341   6.9432
     7.0337   7.0677   7.1238   7.1496   7.1588   7.2343   7.2965   7.3011
     7.4088   7.4128   7.4320   7.5768   7.5985   7.6633   7.7591   7.8054
     7.8497   7.8558   7.8805   7.9290   7.9616   8.0272   8.0346   8.1061
     8.1510   8.1845   8.2750   8.2886   8.3619   8.3851   8.4760   8.4970
     8.5527   8.5588   8.5785   8.5875   8.6309   8.6977   8.7805   8.8001

     occupation numbers 
     1.0000   1.0000   1.0000   1.0000   1.0000   1.0000   1.0000   1.0000
     1.0000   1.0000   1.0000   1.0000   1.0000   1.0000   1.0000   1.0000
     1.0000   1.0000   1.0000   1.0000   1.0000   1.0000   1.0000   1.0000
     1.0000   1.0000   1.0000   1.0000   1.0000   1.0000   1.0000   1.0000
     1.0000   1.0000   1.0000   1.0000   1.0000   1.0000   1.0000   1.0000
     1.0000   1.0000   1.0000   1.0000   1.0000   1.0000   1.0000   1.0000
     1.0000   1.0000   1.0000   1.0000   1.0000   1.0000   1.0000   1.0000
     1.0000   1.0000   1.0000   1.0000   1.0000   1.0000   1.0000   1.0000
     1.0000   1.0000   1.0000   1.0000   1.0000   1.0000   1.0000   1.0000
     1.0000   1.0000   1.0000   1.0000   1.0000   1.0000   1.0000   1.0000
     1.0000   1.0000   1.0000   1.0000   1.0000   1.0000   1.0000   1.0000
     1.0000   1.0000   1.0000   1.0000   1.0000   1.0000   1.0000   1.0000
     1.0000   1.0000   1.0000   1.0000   1.0000   1.0000   1.0000   1.0000
     1.0000   1.0000   1.0000   1.0000   1.0000   1.0000   1.0000   1.0000
     1.0000   1.0000   1.0000   1.0000   1.0000   1.0000   1.0000   1.0000
     1.0000   1.0000   1.0000   1.0000   1.0000   1.0000   1.0000   1.0000
     1.0000   1.0000   1.0000   1.0000   1.0000   1.0000   1.0000   1.0000
     1.0000   1.0000   1.0000   1.0000   1.0000   1.0000   1.0000   1.0000
     1.0000   1.0000   1.0000   1.0000   1.0000   1.0000   1.0000   1.0000
     1.0000   1.0000   1.0000   1.0000   1.0000   1.0000   1.0000   1.0000

          k = 0.2500 0.0000 0.2554 ( 23006 PWs)   bands (ev):

   -35.5771 -35.5769 -35.5719 -35.5716 -35.4923 -35.4921 -35.4872 -35.4870
   -28.8731 -28.8717 -28.8662 -28.8648 -16.1776 -16.1563 -16.1272 -16.1176
   -16.1049 -16.0988 -16.0516 -16.0423 -16.0259 -15.9741 -15.9720 -15.9609
   -15.8889 -15.8333 -15.8269 -15.8229 -15.8140 -15.8108 -15.8108 -15.8030
   -15.8009 -15.7969 -15.7864 -15.7777 -15.7697 -15.7322 -15.6984 -15.6915
   -10.7320 -10.6978 -10.6874 -10.6831 -10.6737 -10.6669 -10.6575 -10.6448
   -10.6137 -10.6096 -10.4936 -10.4909  -7.2508  -7.2094  -7.1258  -7.1123
    -7.0786  -6.9951  -6.8438  -6.8290  -6.6936  -6.6912  -6.6504  -6.6447
    -6.1831  -6.1765  -6.1200  -6.1102  -6.0785  -6.0582  -6.0379  -6.0353
    -6.0258  -6.0136  -6.0074  -5.9931  -1.5386  -1.3819  -1.2919  -1.2148
    -1.2076  -1.1549  -1.1481  -1.1385  -1.1310  -1.0720  -1.0717  -0.9466
     5.1317   5.1490   5.1691   5.1730   5.2554   5.2721   5.3903   5.4806
     5.5852   5.5952   5.6316   5.6595   5.6939   5.7702   5.9253   5.9285
     6.0611   6.0825   6.1464   6.4131   6.4401   6.4669   6.4864   6.5147
     6.6168   6.6747   6.7135   6.7629   6.7659   6.8546   6.8959   6.9206
     6.9839   7.0219   7.0716   7.1036   7.1301   7.2181   7.2583   7.2779
     7.3993   7.4656   7.5158   7.6011   7.6535   7.7325   7.7388   7.7840
     7.8766   7.9056   7.9142   7.9653   7.9812   7.9999   8.0246   8.0458
     8.1247   8.1570   8.2029   8.2181   8.3014   8.3086   8.3979   8.4197
     8.4324   8.4478   8.5378   8.5991   8.6100   8.6248   8.7415   8.7808

     occupation numbers 
     1.0000   1.0000   1.0000   1.0000   1.0000   1.0000   1.0000   1.0000
     1.0000   1.0000   1.0000   1.0000   1.0000   1.0000   1.0000   1.0000
     1.0000   1.0000   1.0000   1.0000   1.0000   1.0000   1.0000   1.0000
     1.0000   1.0000   1.0000   1.0000   1.0000   1.0000   1.0000   1.0000
     1.0000   1.0000   1.0000   1.0000   1.0000   1.0000   1.0000   1.0000
     1.0000   1.0000   1.0000   1.0000   1.0000   1.0000   1.0000   1.0000
     1.0000   1.0000   1.0000   1.0000   1.0000   1.0000   1.0000   1.0000
     1.0000   1.0000   1.0000   1.0000   1.0000   1.0000   1.0000   1.0000
     1.0000   1.0000   1.0000   1.0000   1.0000   1.0000   1.0000   1.0000
     1.0000   1.0000   1.0000   1.0000   1.0000   1.0000   1.0000   1.0000
     1.0000   1.0000   1.0000   1.0000   1.0000   1.0000   1.0000   1.0000
     1.0000   1.0000   1.0000   1.0000   1.0000   1.0000   1.0000   1.0000
     1.0000   1.0000   1.0000   1.0000   1.0000   1.0000   1.0000   1.0000
     1.0000   1.0000   1.0000   1.0000   1.0000   1.0000   1.0000   1.0000
     1.0000   1.0000   1.0000   1.0000   1.0000   1.0000   1.0000   1.0000
     1.0000   1.0000   1.0000   1.0000   1.0000   1.0000   1.0000   1.0000
     1.0000   1.0000   1.0000   1.0000   1.0000   1.0000   1.0000   1.0000
     1.0000   1.0000   1.0000   1.0000   1.0000   1.0000   1.0000   1.0000
     1.0000   1.0000   1.0000   1.0000   1.0000   1.0000   1.0000   1.0000
     1.0000   1.0000   1.0000   1.0000   1.0000   1.0000   1.0000   1.0000

          k = 0.2500 0.0000-0.5108 ( 23018 PWs)   bands (ev):

   -35.5760 -35.5757 -35.5731 -35.5728 -35.4902 -35.4900 -35.4893 -35.4891
   -28.8731 -28.8717 -28.8662 -28.8648 -16.1771 -16.1150 -16.1110 -16.1057
   -16.1016 -16.0963 -16.0101 -16.0059 -15.9742 -15.9711 -15.9541 -15.9326
   -15.9245 -15.9233 -15.8937 -15.8920 -15.8217 -15.8077 -15.8073 -15.8047
   -15.8006 -15.8002 -15.7982 -15.7897 -15.7693 -15.7316 -15.6875 -15.6856
   -10.7306 -10.6969 -10.6861 -10.6819 -10.6737 -10.6668 -10.6570 -10.6448
   -10.6134 -10.6092 -10.4936 -10.4909  -7.2747  -7.1650  -7.1410  -7.0842
    -6.9541  -6.7544  -6.7427  -6.7003  -6.6471  -6.6279  -6.4826  -6.4794
    -6.4238  -6.4204  -6.4159  -6.3891  -6.0934  -6.0730  -6.0658  -6.0441
    -6.0409  -6.0246  -6.0110  -5.9934  -1.5372  -1.3833  -1.2916  -1.2156
    -1.2068  -1.1558  -1.1480  -1.1395  -1.1320  -1.0733  -1.0717  -0.9482
     5.1582   5.1716   5.1718   5.1737   5.4166   5.4729   5.4894   5.5661
     5.6073   5.6778   5.7483   5.7694   5.8060   5.9722   6.0164   6.0177
     6.1557   6.2298   6.2818   6.2873   6.2908   6.4057   6.4266   6.5308
     6.5773   6.5923   6.6747   6.6972   6.7008   6.8626   6.9050   6.9356
     6.9673   6.9910   6.9957   7.0626   7.1890   7.2245   7.2425   7.2908
     7.2933   7.3101   7.3125   7.4449   7.4748   7.5351   7.6107   7.7214
     7.7555   7.8760   7.9220   7.9306   7.9521   7.9769   8.1862   8.2095
     8.2331   8.2387   8.2696   8.2735   8.2890   8.2901   8.3080   8.3159
     8.3638   8.3862   8.5033   8.5366   8.6127   8.6470   8.6549   8.6973

     occupation numbers 
     1.0000   1.0000   1.0000   1.0000   1.0000   1.0000   1.0000   1.0000
     1.0000   1.0000   1.0000   1.0000   1.0000   1.0000   1.0000   1.0000
     1.0000   1.0000   1.0000   1.0000   1.0000   1.0000   1.0000   1.0000
     1.0000   1.0000   1.0000   1.0000   1.0000   1.0000   1.0000   1.0000
     1.0000   1.0000   1.0000   1.0000   1.0000   1.0000   1.0000   1.0000
     1.0000   1.0000   1.0000   1.0000   1.0000   1.0000   1.0000   1.0000
     1.0000   1.0000   1.0000   1.0000   1.0000   1.0000   1.0000   1.0000
     1.0000   1.0000   1.0000   1.0000   1.0000   1.0000   1.0000   1.0000
     1.0000   1.0000   1.0000   1.0000   1.0000   1.0000   1.0000   1.0000
     1.0000   1.0000   1.0000   1.0000   1.0000   1.0000   1.0000   1.0000
     1.0000   1.0000   1.0000   1.0000   1.0000   1.0000   1.0000   1.0000
     1.0000   1.0000   1.0000   1.0000   1.0000   1.0000   1.0000   1.0000
     1.0000   1.0000   1.0000   1.0000   1.0000   1.0000   1.0000   1.0000
     1.0000   1.0000   1.0000   1.0000   1.0000   1.0000   1.0000   1.0000
     1.0000   1.0000   1.0000   1.0000   1.0000   1.0000   1.0000   1.0000
     1.0000   1.0000   1.0000   1.0000   1.0000   1.0000   1.0000   1.0000
     1.0000   1.0000   1.0000   1.0000   1.0000   1.0000   1.0000   1.0000
     1.0000   1.0000   1.0000   1.0000   1.0000   1.0000   1.0000   1.0000
     1.0000   1.0000   1.0000   1.0000   1.0000   1.0000   1.0000   1.0000
     1.0000   1.0000   1.0000   1.0000   1.0000   1.0000   1.0000   1.0000

          k = 0.2500 0.0000-0.2554 ( 23006 PWs)   bands (ev):

   -35.5771 -35.5769 -35.5719 -35.5716 -35.4923 -35.4921 -35.4872 -35.4870
   -28.8731 -28.8717 -28.8662 -28.8648 -16.1776 -16.1563 -16.1272 -16.1176
   -16.1049 -16.0988 -16.0516 -16.0423 -16.0259 -15.9741 -15.9720 -15.9609
   -15.8889 -15.8333 -15.8269 -15.8229 -15.8140 -15.8108 -15.8108 -15.8030
   -15.8009 -15.7969 -15.7864 -15.7777 -15.7697 -15.7322 -15.6984 -15.6915
   -10.7320 -10.6978 -10.6874 -10.6831 -10.6737 -10.6669 -10.6575 -10.6448
   -10.6137 -10.6096 -10.4936 -10.4909  -7.2508  -7.2094  -7.1258  -7.1123
    -7.0786  -6.9951  -6.8438  -6.8290  -6.6936  -6.6913  -6.6503  -6.6446
    -6.1831  -6.1765  -6.1200  -6.1102  -6.0785  -6.0581  -6.0378  -6.0353
    -6.0258  -6.0136  -6.0074  -5.9932  -1.5386  -1.3819  -1.2919  -1.2148
    -1.2076  -1.1549  -1.1481  -1.1385  -1.1310  -1.0720  -1.0717  -0.9465
     5.1317   5.1490   5.1691   5.1730   5.2555   5.2722   5.3903   5.4806
     5.5850   5.5950   5.6315   5.6596   5.6937   5.7702   5.9253   5.9284
     6.0611   6.0824   6.1465   6.4133   6.4400   6.4671   6.4863   6.5147
     6.6167   6.6747   6.7134   6.7630   6.7660   6.8547   6.8957   6.9207
     6.9837   7.0218   7.0717   7.1037   7.1301   7.2183   7.2582   7.2780
     7.3993   7.4656   7.5159   7.6011   7.6535   7.7325   7.7388   7.7841
     7.8766   7.9056   7.9141   7.9653   7.9814   7.9999   8.0246   8.0458
     8.1245   8.1572   8.2029   8.2181   8.3015   8.3086   8.3979   8.4193
     8.4324   8.4477   8.5378   8.5991   8.6099   8.6249   8.7415   8.7808

     occupation numbers 
     1.0000   1.0000   1.0000   1.0000   1.0000   1.0000   1.0000   1.0000
     1.0000   1.0000   1.0000   1.0000   1.0000   1.0000   1.0000   1.0000
     1.0000   1.0000   1.0000   1.0000   1.0000   1.0000   1.0000   1.0000
     1.0000   1.0000   1.0000   1.0000   1.0000   1.0000   1.0000   1.0000
     1.0000   1.0000   1.0000   1.0000   1.0000   1.0000   1.0000   1.0000
     1.0000   1.0000   1.0000   1.0000   1.0000   1.0000   1.0000   1.0000
     1.0000   1.0000   1.0000   1.0000   1.0000   1.0000   1.0000   1.0000
     1.0000   1.0000   1.0000   1.0000   1.0000   1.0000   1.0000   1.0000
     1.0000   1.0000   1.0000   1.0000   1.0000   1.0000   1.0000   1.0000
     1.0000   1.0000   1.0000   1.0000   1.0000   1.0000   1.0000   1.0000
     1.0000   1.0000   1.0000   1.0000   1.0000   1.0000   1.0000   1.0000
     1.0000   1.0000   1.0000   1.0000   1.0000   1.0000   1.0000   1.0000
     1.0000   1.0000   1.0000   1.0000   1.0000   1.0000   1.0000   1.0000
     1.0000   1.0000   1.0000   1.0000   1.0000   1.0000   1.0000   1.0000
     1.0000   1.0000   1.0000   1.0000   1.0000   1.0000   1.0000   1.0000
     1.0000   1.0000   1.0000   1.0000   1.0000   1.0000   1.0000   1.0000
     1.0000   1.0000   1.0000   1.0000   1.0000   1.0000   1.0000   1.0000
     1.0000   1.0000   1.0000   1.0000   1.0000   1.0000   1.0000   1.0000
     1.0000   1.0000   1.0000   1.0000   1.0000   1.0000   1.0000   1.0000
     1.0000   1.0000   1.0000   1.0000   1.0000   1.0000   1.0000   1.0000

          k = 0.2500 0.2522 0.0000 ( 22991 PWs)   bands (ev):

   -35.5778 -35.5776 -35.5710 -35.5708 -35.4933 -35.4932 -35.4862 -35.4861
   -28.8727 -28.8716 -28.8663 -28.8652 -16.1832 -16.1544 -16.1329 -16.0877
   -16.0837 -16.0756 -16.0648 -16.0586 -16.0431 -15.9902 -15.9750 -15.9644
   -15.8930 -15.8581 -15.8458 -15.8383 -15.8256 -15.8131 -15.8117 -15.8065
   -15.7812 -15.7799 -15.7592 -15.7533 -15.7518 -15.7325 -15.7112 -15.6989
   -10.7268 -10.7013 -10.6802 -10.6699 -10.6676 -10.6634 -10.6438 -10.6419
   -10.6187 -10.6142 -10.5165 -10.5123  -7.2403  -7.1931  -7.0566  -7.0419
    -7.0145  -6.9691  -6.9102  -6.9033  -6.6942  -6.6933  -6.6820  -6.6746
    -6.2412  -6.2194  -6.2042  -6.1919  -6.0999  -6.0825  -6.0494  -6.0218
    -5.9805  -5.9764  -5.9302  -5.8997  -1.5093  -1.3725  -1.3120  -1.2979
    -1.2138  -1.1529  -1.1500  -1.1212  -1.0763  -1.0725  -1.0629  -0.9510
     5.1437   5.1571   5.2111   5.2186   5.3410   5.3703   5.3963   5.5233
     5.5274   5.5446   5.5703   5.6605   5.6752   5.8116   5.8284   5.9371
     6.0319   6.1154   6.2139   6.2624   6.3503   6.3773   6.5159   6.5349
     6.5679   6.5973   6.6857   6.6959   6.8244   6.8611   6.9372   6.9397
     7.0171   7.0926   7.0931   7.1698   7.1764   7.2478   7.3299   7.3302
     7.4061   7.4222   7.5507   7.6378   7.7188   7.7434   7.7810   7.8255
     7.8293   7.8315   7.9106   7.9447   7.9596   7.9720   8.0464   8.0528
     8.0577   8.1452   8.1576   8.1645   8.2887   8.2991   8.3804   8.4005
     8.4597   8.5289   8.5440   8.5630   8.5907   8.6228   8.7060   8.7688

     occupation numbers 
     1.0000   1.0000   1.0000   1.0000   1.0000   1.0000   1.0000   1.0000
     1.0000   1.0000   1.0000   1.0000   1.0000   1.0000   1.0000   1.0000
     1.0000   1.0000   1.0000   1.0000   1.0000   1.0000   1.0000   1.0000
     1.0000   1.0000   1.0000   1.0000   1.0000   1.0000   1.0000   1.0000
     1.0000   1.0000   1.0000   1.0000   1.0000   1.0000   1.0000   1.0000
     1.0000   1.0000   1.0000   1.0000   1.0000   1.0000   1.0000   1.0000
     1.0000   1.0000   1.0000   1.0000   1.0000   1.0000   1.0000   1.0000
     1.0000   1.0000   1.0000   1.0000   1.0000   1.0000   1.0000   1.0000
     1.0000   1.0000   1.0000   1.0000   1.0000   1.0000   1.0000   1.0000
     1.0000   1.0000   1.0000   1.0000   1.0000   1.0000   1.0000   1.0000
     1.0000   1.0000   1.0000   1.0000   1.0000   1.0000   1.0000   1.0000
     1.0000   1.0000   1.0000   1.0000   1.0000   1.0000   1.0000   1.0000
     1.0000   1.0000   1.0000   1.0000   1.0000   1.0000   1.0000   1.0000
     1.0000   1.0000   1.0000   1.0000   1.0000   1.0000   1.0000   1.0000
     1.0000   1.0000   1.0000   1.0000   1.0000   1.0000   1.0000   1.0000
     1.0000   1.0000   1.0000   1.0000   1.0000   1.0000   1.0000   1.0000
     1.0000   1.0000   1.0000   1.0000   1.0000   1.0000   1.0000   1.0000
     1.0000   1.0000   1.0000   1.0000   1.0000   1.0000   1.0000   1.0000
     1.0000   1.0000   1.0000   1.0000   1.0000   1.0000   1.0000   1.0000
     1.0000   1.0000   1.0000   1.0000   1.0000   1.0000   1.0000   1.0000

          k = 0.2500 0.2522 0.2554 ( 23003 PWs)   bands (ev):

   -35.5770 -35.5768 -35.5718 -35.5716 -35.4923 -35.4921 -35.4873 -35.4871
   -28.8727 -28.8716 -28.8663 -28.8652 -16.1456 -16.1454 -16.1135 -16.0822
   -16.0662 -16.0613 -16.0531 -16.0449 -16.0261 -15.9868 -15.9730 -15.9643
   -15.9076 -15.8591 -15.8494 -15.8450 -15.8417 -15.8364 -15.8260 -15.8193
   -15.8133 -15.8068 -15.7858 -15.7802 -15.7525 -15.7226 -15.6938 -15.6907
   -10.7254 -10.7003 -10.6791 -10.6699 -10.6667 -10.6632 -10.6437 -10.6415
   -10.6183 -10.6139 -10.5163 -10.5121  -7.1278  -7.1208  -7.0133  -7.0102
    -6.9782  -6.9460  -6.8202  -6.8084  -6.7078  -6.6876  -6.6555  -6.6416
    -6.2409  -6.2383  -6.2040  -6.1837  -6.1681  -6.1668  -6.1117  -6.1010
    -6.0414  -6.0402  -6.0314  -6.0112  -1.5084  -1.3735  -1.3122  -1.2979
    -1.2141  -1.1531  -1.1507  -1.1216  -1.0771  -1.0727  -1.0631  -0.9519
     5.2457   5.2753   5.2943   5.3682   5.4205   5.4493   5.5331   5.5937
     5.6193   5.6522   5.6624   5.7188   5.7779   5.8185   5.9270   5.9421
     6.1033   6.1611   6.1994   6.2318   6.2415   6.3907   6.4311   6.5112
     6.5402   6.5686   6.6286   6.6833   6.6978   6.7766   6.7906   6.8533
     6.8860   6.9983   7.0001   7.0885   7.1156   7.1911   7.2100   7.3811
     7.4721   7.5949   7.6176   7.6613   7.7040   7.7882   7.7981   7.8255
     7.8337   7.9003   7.9173   7.9619   7.9731   7.9782   8.0348   8.0470
     8.0630   8.0842   8.1061   8.1484   8.1634   8.2093   8.2897   8.3173
     8.4055   8.4120   8.4921   8.5316   8.5445   8.6532   8.6766   8.7515

     occupation numbers 
     1.0000   1.0000   1.0000   1.0000   1.0000   1.0000   1.0000   1.0000
     1.0000   1.0000   1.0000   1.0000   1.0000   1.0000   1.0000   1.0000
     1.0000   1.0000   1.0000   1.0000   1.0000   1.0000   1.0000   1.0000
     1.0000   1.0000   1.0000   1.0000   1.0000   1.0000   1.0000   1.0000
     1.0000   1.0000   1.0000   1.0000   1.0000   1.0000   1.0000   1.0000
     1.0000   1.0000   1.0000   1.0000   1.0000   1.0000   1.0000   1.0000
     1.0000   1.0000   1.0000   1.0000   1.0000   1.0000   1.0000   1.0000
     1.0000   1.0000   1.0000   1.0000   1.0000   1.0000   1.0000   1.0000
     1.0000   1.0000   1.0000   1.0000   1.0000   1.0000   1.0000   1.0000
     1.0000   1.0000   1.0000   1.0000   1.0000   1.0000   1.0000   1.0000
     1.0000   1.0000   1.0000   1.0000   1.0000   1.0000   1.0000   1.0000
     1.0000   1.0000   1.0000   1.0000   1.0000   1.0000   1.0000   1.0000
     1.0000   1.0000   1.0000   1.0000   1.0000   1.0000   1.0000   1.0000
     1.0000   1.0000   1.0000   1.0000   1.0000   1.0000   1.0000   1.0000
     1.0000   1.0000   1.0000   1.0000   1.0000   1.0000   1.0000   1.0000
     1.0000   1.0000   1.0000   1.0000   1.0000   1.0000   1.0000   1.0000
     1.0000   1.0000   1.0000   1.0000   1.0000   1.0000   1.0000   1.0000
     1.0000   1.0000   1.0000   1.0000   1.0000   1.0000   1.0000   1.0000
     1.0000   1.0000   1.0000   1.0000   1.0000   1.0000   1.0000   1.0000
     1.0000   1.0000   1.0000   1.0000   1.0000   1.0000   1.0000   1.0000

          k = 0.2500 0.2522-0.5108 ( 22970 PWs)   bands (ev):

   -35.5759 -35.5757 -35.5730 -35.5728 -35.4902 -35.4901 -35.4893 -35.4892
   -28.8727 -28.8716 -28.8663 -28.8652 -16.1413 -16.0958 -16.0870 -16.0781
   -16.0672 -16.0638 -16.0096 -16.0054 -15.9761 -15.9738 -15.9715 -15.9377
   -15.9313 -15.9247 -15.9017 -15.8984 -15.8612 -15.8492 -15.8487 -15.8437
   -15.8128 -15.8049 -15.7959 -15.7907 -15.7519 -15.7193 -15.6904 -15.6796
   -10.7241 -10.6995 -10.6780 -10.6698 -10.6658 -10.6629 -10.6436 -10.6412
   -10.6180 -10.6136 -10.5160 -10.5119  -7.1390  -7.0239  -6.9929  -6.9440
    -6.9096  -6.7366  -6.7259  -6.7030  -6.6790  -6.6280  -6.4750  -6.4735
    -6.4368  -6.4278  -6.4177  -6.3949  -6.2508  -6.2245  -6.2024  -6.1628
    -6.0725  -6.0638  -6.0310  -6.0252  -1.5075  -1.3746  -1.3124  -1.2979
    -1.2144  -1.1531  -1.1513  -1.1219  -1.0779  -1.0729  -1.0634  -0.9529
     5.3056   5.3459   5.3578   5.4132   5.4709   5.5617   5.6907   5.6929
     5.7400   5.7419   5.7508   5.8611   5.8991   5.9756   5.9787   6.1405
     6.1778   6.1831   6.1954   6.2035   6.2946   6.3337   6.3949   6.4229
     6.4779   6.5211   6.6010   6.6450   6.6738   6.7495   6.7601   6.8389
     6.8661   6.9123   6.9839   6.9991   7.0174   7.1325   7.1675   7.2418
     7.2729   7.3995   7.4077   7.5552   7.6222   7.6939   7.7418   7.7705
     7.8183   7.8503   7.8595   7.9625   7.9725   8.0290   8.0332   8.0615
     8.0733   8.1489   8.2050   8.2298   8.2380   8.2508   8.2725   8.3113
     8.3373   8.3425   8.5070   8.5264   8.5554   8.6146   8.6351   8.6635

     occupation numbers 
     1.0000   1.0000   1.0000   1.0000   1.0000   1.0000   1.0000   1.0000
     1.0000   1.0000   1.0000   1.0000   1.0000   1.0000   1.0000   1.0000
     1.0000   1.0000   1.0000   1.0000   1.0000   1.0000   1.0000   1.0000
     1.0000   1.0000   1.0000   1.0000   1.0000   1.0000   1.0000   1.0000
     1.0000   1.0000   1.0000   1.0000   1.0000   1.0000   1.0000   1.0000
     1.0000   1.0000   1.0000   1.0000   1.0000   1.0000   1.0000   1.0000
     1.0000   1.0000   1.0000   1.0000   1.0000   1.0000   1.0000   1.0000
     1.0000   1.0000   1.0000   1.0000   1.0000   1.0000   1.0000   1.0000
     1.0000   1.0000   1.0000   1.0000   1.0000   1.0000   1.0000   1.0000
     1.0000   1.0000   1.0000   1.0000   1.0000   1.0000   1.0000   1.0000
     1.0000   1.0000   1.0000   1.0000   1.0000   1.0000   1.0000   1.0000
     1.0000   1.0000   1.0000   1.0000   1.0000   1.0000   1.0000   1.0000
     1.0000   1.0000   1.0000   1.0000   1.0000   1.0000   1.0000   1.0000
     1.0000   1.0000   1.0000   1.0000   1.0000   1.0000   1.0000   1.0000
     1.0000   1.0000   1.0000   1.0000   1.0000   1.0000   1.0000   1.0000
     1.0000   1.0000   1.0000   1.0000   1.0000   1.0000   1.0000   1.0000
     1.0000   1.0000   1.0000   1.0000   1.0000   1.0000   1.0000   1.0000
     1.0000   1.0000   1.0000   1.0000   1.0000   1.0000   1.0000   1.0000
     1.0000   1.0000   1.0000   1.0000   1.0000   1.0000   1.0000   1.0000
     1.0000   1.0000   1.0000   1.0000   1.0000   1.0000   1.0000   1.0000

          k = 0.2500 0.2522-0.2554 ( 23003 PWs)   bands (ev):

   -35.5770 -35.5768 -35.5718 -35.5716 -35.4923 -35.4921 -35.4873 -35.4871
   -28.8727 -28.8716 -28.8663 -28.8652 -16.1456 -16.1454 -16.1135 -16.0822
   -16.0662 -16.0613 -16.0531 -16.0449 -16.0260 -15.9868 -15.9730 -15.9643
   -15.9076 -15.8591 -15.8494 -15.8450 -15.8418 -15.8364 -15.8260 -15.8193
   -15.8133 -15.8067 -15.7858 -15.7802 -15.7525 -15.7226 -15.6938 -15.6906
   -10.7254 -10.7003 -10.6791 -10.6699 -10.6667 -10.6632 -10.6437 -10.6415
   -10.6183 -10.6139 -10.5163 -10.5121  -7.1279  -7.1208  -7.0133  -7.0101
    -6.9782  -6.9459  -6.8203  -6.8084  -6.7077  -6.6877  -6.6554  -6.6415
    -6.2410  -6.2382  -6.2041  -6.1837  -6.1681  -6.1668  -6.1117  -6.1010
    -6.0414  -6.0401  -6.0314  -6.0112  -1.5084  -1.3735  -1.3122  -1.2979
    -1.2141  -1.1531  -1.1507  -1.1216  -1.0771  -1.0727  -1.0631  -0.9519
     5.2457   5.2754   5.2944   5.3682   5.4205   5.4494   5.5331   5.5935
     5.6192   5.6523   5.6623   5.7187   5.7779   5.8183   5.9269   5.9422
     6.1034   6.1610   6.1993   6.2318   6.2415   6.3907   6.4309   6.5113
     6.5404   6.5688   6.6287   6.6834   6.6979   6.7764   6.7901   6.8534
     6.8862   6.9984   7.0001   7.0886   7.1156   7.1911   7.2099   7.3809
     7.4723   7.5951   7.6176   7.6615   7.7039   7.7881   7.7980   7.8257
     7.8337   7.9002   7.9173   7.9618   7.9732   7.9781   8.0347   8.0468
     8.0630   8.0841   8.1062   8.1484   8.1635   8.2093   8.2898   8.3174
     8.4053   8.4117   8.4921   8.5317   8.5446   8.6533   8.6766   8.7515

     occupation numbers 
     1.0000   1.0000   1.0000   1.0000   1.0000   1.0000   1.0000   1.0000
     1.0000   1.0000   1.0000   1.0000   1.0000   1.0000   1.0000   1.0000
     1.0000   1.0000   1.0000   1.0000   1.0000   1.0000   1.0000   1.0000
     1.0000   1.0000   1.0000   1.0000   1.0000   1.0000   1.0000   1.0000
     1.0000   1.0000   1.0000   1.0000   1.0000   1.0000   1.0000   1.0000
     1.0000   1.0000   1.0000   1.0000   1.0000   1.0000   1.0000   1.0000
     1.0000   1.0000   1.0000   1.0000   1.0000   1.0000   1.0000   1.0000
     1.0000   1.0000   1.0000   1.0000   1.0000   1.0000   1.0000   1.0000
     1.0000   1.0000   1.0000   1.0000   1.0000   1.0000   1.0000   1.0000
     1.0000   1.0000   1.0000   1.0000   1.0000   1.0000   1.0000   1.0000
     1.0000   1.0000   1.0000   1.0000   1.0000   1.0000   1.0000   1.0000
     1.0000   1.0000   1.0000   1.0000   1.0000   1.0000   1.0000   1.0000
     1.0000   1.0000   1.0000   1.0000   1.0000   1.0000   1.0000   1.0000
     1.0000   1.0000   1.0000   1.0000   1.0000   1.0000   1.0000   1.0000
     1.0000   1.0000   1.0000   1.0000   1.0000   1.0000   1.0000   1.0000
     1.0000   1.0000   1.0000   1.0000   1.0000   1.0000   1.0000   1.0000
     1.0000   1.0000   1.0000   1.0000   1.0000   1.0000   1.0000   1.0000
     1.0000   1.0000   1.0000   1.0000   1.0000   1.0000   1.0000   1.0000
     1.0000   1.0000   1.0000   1.0000   1.0000   1.0000   1.0000   1.0000
     1.0000   1.0000   1.0000   1.0000   1.0000   1.0000   1.0000   1.0000

          k = 0.2500-0.5043 0.0000 ( 23022 PWs)   bands (ev):

   -35.5777 -35.5777 -35.5709 -35.5709 -35.4933 -35.4933 -35.4862 -35.4862
   -28.8720 -28.8719 -28.8660 -28.8659 -16.1587 -16.1587 -16.0998 -16.0998
   -16.0361 -16.0360 -16.0200 -16.0200 -15.9938 -15.9938 -15.9659 -15.9659
[...]
     atom   17 type  2   force =     0.75301087   -0.45551572    1.72115755
     atom   18 type  2   force =     0.75255688   -0.45464040   -1.71849143
     atom   19 type  2   force =     0.74063696    0.45559423    1.72819557
     atom   20 type  2   force =     0.73913801    0.45485040   -1.72576774
     atom   21 type  2   force =     0.74023357    0.45549691    1.72874689
     atom   22 type  2   force =     0.73879679    0.45472890   -1.72632835
     atom   23 type  2   force =     0.75335990   -0.45561495    1.72056750
     atom   24 type  2   force =     0.75294646   -0.45478036   -1.71790908
     atom   25 type  2   force =     4.34146113    0.00167771   -0.00360305
     atom   26 type  2   force =    -1.61814646   -0.00377848   -0.00231328
     atom   27 type  2   force =    -2.51751762   -0.00282456    0.00107063
     atom   28 type  2   force =     1.29535092    0.00527313    0.00114366
     atom   29 type  2   force =    -2.51751995   -0.00241104    0.00106827
     atom   30 type  2   force =     1.29536506    0.00600456    0.00111451
     atom   31 type  2   force =     4.34147684    0.00203604   -0.00358852
     atom   32 type  2   force =    -1.61814567   -0.00452745   -0.00232086
     atom   33 type  2   force =    -0.15339695   -0.00432496    1.10997962
     atom   34 type  2   force =    -0.14870452   -0.00446247   -1.11021140
     atom   35 type  2   force =     1.11705670    0.00325783    1.76984243
     atom   36 type  2   force =     1.11928224    0.00376829   -1.76857909
     atom   37 type  2   force =     1.11704593    0.00364463    1.76985013
     atom   38 type  2   force =     1.11928386    0.00413020   -1.76855333
     atom   39 type  2   force =    -0.15339899   -0.00444096    1.10998879
     atom   40 type  2   force =    -0.14871410   -0.00456243   -1.11023050
     The local contribution  to forces
     atom    1 type  4   force =     5.30832546    3.25232883    0.00234149
     atom    2 type  4   force =     5.30787144    3.25252120    0.00230901
     atom    3 type  4   force =     5.31983441   -3.26294298    0.00265063
     atom    4 type  4   force =     5.32019716   -3.26279361    0.00264457
     atom    5 type  1   force =     0.87828805   -0.64564400    0.00080112
     atom    6 type  1   force =     0.88971421    0.64630460    0.00108762
     atom    7 type  1   force =     0.88987529    0.64618343    0.00108392
     atom    8 type  1   force =     0.87820531   -0.64578419    0.00085927
     atom    9 type  3   force =    -1.51144697    0.00817361   -3.16933121
     atom   10 type  3   force =    -1.50546326    0.00802990    3.16574987
     atom   11 type  3   force =    -1.31630272   -0.00366884   -2.66357826
     atom   12 type  3   force =    -1.31572986   -0.00357149    2.66262033
     atom   13 type  3   force =    -1.31631201   -0.00447876   -2.66350354
     atom   14 type  3   force =    -1.31573881   -0.00433396    2.66256701
     atom   15 type  3   force =    -1.51143259    0.00930638   -3.16931207
     atom   16 type  3   force =    -1.50549750    0.00909533    3.16571418
     atom   17 type  2   force =    -0.75387745    0.44487757   -1.70641244
     atom   18 type  2   force =    -0.75344298    0.44405003    1.70390834
     atom   19 type  2   force =    -0.74210026   -0.44514720   -1.71316545
     atom   20 type  2   force =    -0.74066106   -0.44443664    1.71090421
     atom   21 type  2   force =    -0.74172554   -0.44506601   -1.71369495
     atom   22 type  2   force =    -0.74034463   -0.44433519    1.71144401
     atom   23 type  2   force =    -0.75420184    0.44496063   -1.70584387
     atom   24 type  2   force =    -0.75380586    0.44416970    1.70334604
     atom   25 type  2   force =    -4.20484467   -0.00146700    0.00314663
     atom   26 type  2   force =     1.55424694    0.00388229    0.00200360
     atom   27 type  2   force =     2.32105013    0.00268112   -0.00095477
     atom   28 type  2   force =    -1.28162550   -0.00512804   -0.00094791
     atom   29 type  2   force =     2.32105142    0.00228749   -0.00095471
     atom   30 type  2   force =    -1.28163950   -0.00585036   -0.00092191
     atom   31 type  2   force =    -4.20485820   -0.00177464    0.00313341
     atom   32 type  2   force =     1.55424600    0.00462532    0.00201157
     atom   33 type  2   force =     0.28851663    0.00420679   -1.15024302
     atom   34 type  2   force =     0.28423347    0.00434974    1.15044830
     atom   35 type  2   force =    -0.94834906   -0.00316488   -1.72227446
     atom   36 type  2   force =    -0.95024135   -0.00365651    1.72119189
     atom   37 type  2   force =    -0.94833898   -0.00355572   -1.72227984
     atom   38 type  2   force =    -0.95024166   -0.00402294    1.72116824
     atom   39 type  2   force =     0.28851805    0.00433114   -1.15025250
     atom   40 type  2   force =     0.28424096    0.00445798    1.15046547
     The core correction contribution to forces
     atom    1 type  4   force =     0.00000000    0.00000000    0.00000000
     atom    2 type  4   force =     0.00000000    0.00000000    0.00000000
     atom    3 type  4   force =     0.00000000    0.00000000    0.00000000
     atom    4 type  4   force =     0.00000000    0.00000000    0.00000000
     atom    5 type  1   force =     0.00000000    0.00000000    0.00000000
     atom    6 type  1   force =     0.00000000    0.00000000    0.00000000
     atom    7 type  1   force =     0.00000000    0.00000000    0.00000000
     atom    8 type  1   force =     0.00000000    0.00000000    0.00000000
     atom    9 type  3   force =     0.00000000    0.00000000    0.00000000
     atom   10 type  3   force =     0.00000000    0.00000000    0.00000000
     atom   11 type  3   force =     0.00000000    0.00000000    0.00000000
     atom   12 type  3   force =     0.00000000    0.00000000    0.00000000
     atom   13 type  3   force =     0.00000000    0.00000000    0.00000000
     atom   14 type  3   force =     0.00000000    0.00000000    0.00000000
     atom   15 type  3   force =     0.00000000    0.00000000    0.00000000
     atom   16 type  3   force =     0.00000000    0.00000000    0.00000000
     atom   17 type  2   force =     0.00000000    0.00000000    0.00000000
     atom   18 type  2   force =     0.00000000    0.00000000    0.00000000
     atom   19 type  2   force =     0.00000000    0.00000000    0.00000000
     atom   20 type  2   force =     0.00000000    0.00000000    0.00000000
     atom   21 type  2   force =     0.00000000    0.00000000    0.00000000
     atom   22 type  2   force =     0.00000000    0.00000000    0.00000000
     atom   23 type  2   force =     0.00000000    0.00000000    0.00000000
     atom   24 type  2   force =     0.00000000    0.00000000    0.00000000
     atom   25 type  2   force =     0.00000000    0.00000000    0.00000000
     atom   26 type  2   force =     0.00000000    0.00000000    0.00000000
     atom   27 type  2   force =     0.00000000    0.00000000    0.00000000
     atom   28 type  2   force =     0.00000000    0.00000000    0.00000000
     atom   29 type  2   force =     0.00000000    0.00000000    0.00000000
     atom   30 type  2   force =     0.00000000    0.00000000    0.00000000
     atom   31 type  2   force =     0.00000000    0.00000000    0.00000000
     atom   32 type  2   force =     0.00000000    0.00000000    0.00000000
     atom   33 type  2   force =     0.00000000    0.00000000    0.00000000
     atom   34 type  2   force =     0.00000000    0.00000000    0.00000000
     atom   35 type  2   force =     0.00000000    0.00000000    0.00000000
     atom   36 type  2   force =     0.00000000    0.00000000    0.00000000
     atom   37 type  2   force =     0.00000000    0.00000000    0.00000000
     atom   38 type  2   force =     0.00000000    0.00000000    0.00000000
     atom   39 type  2   force =     0.00000000    0.00000000    0.00000000
     atom   40 type  2   force =     0.00000000    0.00000000    0.00000000
     The Hubbard contrib.    to forces
     atom    1 type  4   force =     0.00000000    0.00000000    0.00000000
     atom    2 type  4   force =     0.00000000    0.00000000    0.00000000
     atom    3 type  4   force =     0.00000000    0.00000000    0.00000000
     atom    4 type  4   force =     0.00000000    0.00000000    0.00000000
     atom    5 type  1   force =     0.00000000    0.00000000    0.00000000
     atom    6 type  1   force =     0.00000000    0.00000000    0.00000000
     atom    7 type  1   force =     0.00000000    0.00000000    0.00000000
     atom    8 type  1   force =     0.00000000    0.00000000    0.00000000
     atom    9 type  3   force =     0.00000000    0.00000000    0.00000000
     atom   10 type  3   force =     0.00000000    0.00000000    0.00000000
     atom   11 type  3   force =     0.00000000    0.00000000    0.00000000
     atom   12 type  3   force =     0.00000000    0.00000000    0.00000000
     atom   13 type  3   force =     0.00000000    0.00000000    0.00000000
     atom   14 type  3   force =     0.00000000    0.00000000    0.00000000
     atom   15 type  3   force =     0.00000000    0.00000000    0.00000000
     atom   16 type  3   force =     0.00000000    0.00000000    0.00000000
     atom   17 type  2   force =     0.00000000    0.00000000    0.00000000
     atom   18 type  2   force =     0.00000000    0.00000000    0.00000000
     atom   19 type  2   force =     0.00000000    0.00000000    0.00000000
     atom   20 type  2   force =     0.00000000    0.00000000    0.00000000
     atom   21 type  2   force =     0.00000000    0.00000000    0.00000000
     atom   22 type  2   force =     0.00000000    0.00000000    0.00000000
     atom   23 type  2   force =     0.00000000    0.00000000    0.00000000
     atom   24 type  2   force =     0.00000000    0.00000000    0.00000000
     atom   25 type  2   force =     0.00000000    0.00000000    0.00000000
     atom   26 type  2   force =     0.00000000    0.00000000    0.00000000
     atom   27 type  2   force =     0.00000000    0.00000000    0.00000000
     atom   28 type  2   force =     0.00000000    0.00000000    0.00000000
     atom   29 type  2   force =     0.00000000    0.00000000    0.00000000
     atom   30 type  2   force =     0.00000000    0.00000000    0.00000000
     atom   31 type  2   force =     0.00000000    0.00000000    0.00000000
     atom   32 type  2   force =     0.00000000    0.00000000    0.00000000
     atom   33 type  2   force =     0.00000000    0.00000000    0.00000000
     atom   34 type  2   force =     0.00000000    0.00000000    0.00000000
     atom   35 type  2   force =     0.00000000    0.00000000    0.00000000
     atom   36 type  2   force =     0.00000000    0.00000000    0.00000000
     atom   37 type  2   force =     0.00000000    0.00000000    0.00000000
     atom   38 type  2   force =     0.00000000    0.00000000    0.00000000
     atom   39 type  2   force =     0.00000000    0.00000000    0.00000000
     atom   40 type  2   force =     0.00000000    0.00000000    0.00000000
     The SCF correction term to forces
     atom    1 type  4   force =    -0.00000008   -0.00000012    0.00000000
     atom    2 type  4   force =    -0.00000011   -0.00000007    0.00000000
     atom    3 type  4   force =    -0.00000008    0.00000011    0.00000000
     atom    4 type  4   force =    -0.00000011    0.00000007   -0.00000000
     atom    5 type  1   force =    -0.00000001    0.00000006    0.00000000
     atom    6 type  1   force =    -0.00000001   -0.00000006   -0.00000000
     atom    7 type  1   force =    -0.00000000   -0.00000006   -0.00000000
     atom    8 type  1   force =    -0.00000000    0.00000006   -0.00000000
     atom    9 type  3   force =     0.00000003    0.00000000   -0.00000017
     atom   10 type  3   force =     0.00000003    0.00000000    0.00000016
     atom   11 type  3   force =     0.00000012   -0.00000000   -0.00000035
     atom   12 type  3   force =     0.00000012   -0.00000000    0.00000034
     atom   13 type  3   force =     0.00000008    0.00000000   -0.00000032
     atom   14 type  3   force =     0.00000008    0.00000000    0.00000032
     atom   15 type  3   force =    -0.00000002   -0.00000000   -0.00000016
     atom   16 type  3   force =    -0.00000002   -0.00000000    0.00000016
     atom   17 type  2   force =     0.00000003   -0.00000032   -0.00000023
     atom   18 type  2   force =     0.00000003   -0.00000030    0.00000022
     atom   19 type  2   force =     0.00000004    0.00000032   -0.00000022
     atom   20 type  2   force =     0.00000004    0.00000030    0.00000022
     atom   21 type  2   force =     0.00000001    0.00000030   -0.00000021
     atom   22 type  2   force =     0.00000000    0.00000030    0.00000021
     atom   23 type  2   force =     0.00000000   -0.00000030   -0.00000021
     atom   24 type  2   force =     0.00000000   -0.00000030    0.00000021
     atom   25 type  2   force =     0.00000000   -0.00000000   -0.00000000
     atom   26 type  2   force =    -0.00000003    0.00000000    0.00000001
     atom   27 type  2   force =     0.00000023    0.00000000    0.00000001
     atom   28 type  2   force =     0.00000002   -0.00000000   -0.00000001
     atom   29 type  2   force =     0.00000020    0.00000000    0.00000000
     atom   30 type  2   force =     0.00000001    0.00000000   -0.00000000
     atom   31 type  2   force =    -0.00000005   -0.00000000    0.00000000
     atom   32 type  2   force =    -0.00000005   -0.00000000   -0.00000000
     atom   33 type  2   force =    -0.00000033    0.00000000   -0.00000022
     atom   34 type  2   force =    -0.00000032   -0.00000000    0.00000022
     atom   35 type  2   force =     0.00000024    0.00000000   -0.00000022
     atom   36 type  2   force =     0.00000025    0.00000000    0.00000022
     atom   37 type  2   force =     0.00000023    0.00000000   -0.00000021
     atom   38 type  2   force =     0.00000022    0.00000000    0.00000021
     atom   39 type  2   force =    -0.00000032   -0.00000001   -0.00000025
     atom   40 type  2   force =    -0.00000031   -0.00000000    0.00000025

     Total force =     0.000092     Total SCF correction =     0.000002


     Computing stress (Cartesian axis) and pressure

          total   stress  (Ry/bohr**3)                   (kbar)     P=       -0.87
  -0.00001069  -0.00000030   0.00000004           -1.57       -0.04        0.01
  -0.00000030  -0.00000359  -0.00000001           -0.04       -0.53       -0.00
   0.00000004  -0.00000001  -0.00000337            0.01       -0.00       -0.50

     kinetic stress (kbar)  22747.38     -0.11      0.03
                               -0.11  22723.15     -0.01
                                0.03     -0.01  22735.15

     local   stress (kbar)  14009.86      1.92     -0.93
                                1.92   9815.22      0.32
                               -0.93      0.32  10230.74

     nonloc. stress (kbar) -15075.59      0.05     -0.02
                                0.05 -15057.52      0.00
                               -0.02      0.00 -15070.43

     hartree stress (kbar)   4494.89     -0.77      0.33
                               -0.77   5991.87     -0.10
                                0.33     -0.10   5931.30

     exc-cor stress (kbar)  -3987.53     -0.00      0.00
                               -0.00  -3984.57     -0.00
                                0.00     -0.00  -3985.75

     corecor stress (kbar)      0.00      0.00      0.00
                                0.00      0.00      0.00
                                0.00      0.00      0.00

     ewald   stress (kbar) -22190.59     -1.15      0.59
                               -1.15 -19488.69     -0.21
                                0.59     -0.21 -19841.50

     hubbard stress (kbar)      0.00      0.00      0.00
                                0.00      0.00      0.00
                                0.00      0.00      0.00

     DFT-D   stress (kbar)      0.00      0.00      0.00
                                0.00      0.00      0.00
                                0.00      0.00      0.00

     XDM     stress (kbar)      0.00      0.00      0.00
                                0.00      0.00      0.00
                                0.00      0.00      0.00

     dft-nl  stress (kbar)      0.00      0.00      0.00
                                0.00      0.00      0.00
                                0.00      0.00      0.00

     TS-vdW  stress (kbar)      0.00      0.00      0.00
                                0.00      0.00      0.00
                                0.00      0.00      0.00



     Writing output data file ./bto.save/
 
     init_run     :      2.95s CPU      3.11s WALL (       2 calls)
     electrons    :    681.75s CPU    688.52s WALL (      26 calls)
     update_pot   :     22.58s CPU     22.60s WALL (      24 calls)
     forces       :     15.06s CPU     15.09s WALL (      26 calls)
     stress       :     78.89s CPU     78.93s WALL (      26 calls)

     Called by init_run:
     wfcinit      :      1.61s CPU      1.69s WALL (       2 calls)
     wfcinit:atom :      0.04s CPU      0.04s WALL (       6 calls)
     wfcinit:wfcr :      1.45s CPU      1.51s WALL (       6 calls)
     potinit      :      0.73s CPU      0.74s WALL (       2 calls)
     hinit0       :      0.55s CPU      0.59s WALL (       2 calls)

     Called by electrons:
     c_bands      :    626.96s CPU    632.48s WALL (     269 calls)
     sum_band     :     47.50s CPU     48.32s WALL (     269 calls)
     v_of_rho     :      4.95s CPU      5.00s WALL (     273 calls)
     v_h          :      0.39s CPU      0.39s WALL (     273 calls)
     v_xc         :      4.56s CPU      4.60s WALL (     273 calls)
     mix_rho      :      1.41s CPU      1.43s WALL (     269 calls)

     Called by c_bands:
     init_us_2    :      6.32s CPU      6.35s WALL (    1776 calls)
     cegterg      :    590.47s CPU    595.80s WALL (     807 calls)

     Called by sum_band:
     sum_band:wei :      0.03s CPU      0.04s WALL (     269 calls)
     sum_band:loo :     46.56s CPU     47.36s WALL (     269 calls)
     sum_band:buf :      2.66s CPU      2.67s WALL (     807 calls)
     sum_band:ini :      2.90s CPU      2.91s WALL (     807 calls)

     Called by *egterg:
     cdiaghg      :    105.60s CPU    106.10s WALL (    4169 calls)
     cegterg:over :     55.38s CPU     55.65s WALL (    3500 calls)
     cegterg:upda :     56.88s CPU     56.95s WALL (    3500 calls)
     cegterg:last :     69.97s CPU     70.02s WALL (    1959 calls)
     cdiaghg:chol :      3.49s CPU      3.76s WALL (    4169 calls)
     cdiaghg:inve :      3.95s CPU      4.07s WALL (    4169 calls)
     cdiaghg:para :      7.32s CPU      7.37s WALL (    8338 calls)
     h_psi        :    282.96s CPU    287.43s WALL (    4313 calls)
     g_psi        :      3.09s CPU      3.12s WALL (    3500 calls)

     Called by h_psi:
     h_psi:calbec :     29.40s CPU     29.48s WALL (    4313 calls)
     vloc_psi     :    216.51s CPU    220.81s WALL (    4313 calls)
     add_vuspsi   :     29.54s CPU     29.59s WALL (    4313 calls)

     General routines
     calbec       :     34.58s CPU     34.67s WALL (    4703 calls)
     fft          :      2.14s CPU      2.19s WALL (    2958 calls)
     ffts         :      0.19s CPU      0.19s WALL (     269 calls)
     fftw         :    227.17s CPU    231.77s WALL (  896090 calls)
 
     Parallel routines
     fft_scatt_xy :     29.63s CPU     30.10s WALL (  899317 calls)
     fft_scatt_yz :     71.08s CPU     72.45s WALL (  899317 calls)
 
     PWSCF        :  13m22.80s CPU  13m32.54s WALL

 
   This run was terminated on:  12: 9:42   9Feb2021            

=------------------------------------------------------------------------------=
   JOB DONE.
=------------------------------------------------------------------------------=
