
     Program PWSCF v.6.6 starts on  9Feb2021 at 11:58: 6 

     This program is part of the open-source Quantum ESPRESSO suite
     for quantum simulation of materials; please cite
         "P. Giannozzi et al., J. Phys.:Condens. Matter 21 395502 (2009);
         "P. Giannozzi et al., J. Phys.:Condens. Matter 29 465901 (2017);
          URL http://www.quantum-espresso.org", 
     in publications or presentations arising from this work. More details at
     http://www.quantum-espresso.org/quote

     Parallel version (MPI), running on   192 processors

     MPI processes distributed on     4 nodes
     K-points division:     npool     =      16
     R & G space division:  proc/nbgrp/npool/nimage =      12
     Fft bands division:     nmany     =       1
     Waiting for input...
     Reading input from standard input

     Current dimensions of program PWSCF are:
     Max number of different atomic species (ntypx) = 10
     Max number of k-points (npk) =  40000
     Max angular momentum in pseudopotentials (lmaxx) =  3
     Message from routine scan_end:
     No INFO block end statement, possibly corrupted file
     Message from routine scan_end:
     No INFO block end statement, possibly corrupted file
     Message from routine scan_end:
     No INFO block end statement, possibly corrupted file
     Message from routine scan_end:
     No INFO block end statement, possibly corrupted file

     IMPORTANT: XC functional enforced from input :
     Exchange-correlation= PBESOL
                           (   1   4  10   8   0   0   0)
     Any further DFT definition will be discarded
     Please, verify this is what you really want


     Subspace diagonalization in iterative solution of the eigenvalue problem:
     one sub-group per band group will be used
     custom distributed-memory algorithm (size of sub-group:  3*  3 procs)

 
     Parallelization info
     --------------------
     sticks:   dense  smooth     PW     G-vecs:    dense   smooth      PW
     Min         332     332     91                15484    15484    2233
     Max         334     334     92                15485    15485    2234
     Sum        3993    3993   1101               185813   185813   26805
 

     Title: 
     bto                                                                        


     bravais-lattice index     =            0
     lattice parameter (alat)  =      15.9892  a.u.
     unit-cell volume          =    3889.7957 (a.u.)^3
     number of atoms/cell      =           40
     number of atomic types    =            4
     number of electrons       =       320.00
     number of Kohn-Sham states=          160
     kinetic-energy cutoff     =      50.0000  Ry
     charge density cutoff     =     200.0000  Ry
     convergence threshold     =      1.0E-09
     mixing beta               =       0.7000
     number of iterations used =            8  plain     mixing
     Exchange-correlation= PBESOL
                           (   1   4  10   8   0   0   0)
     nstep                     =       100000


     celldm(1)=  15.989208  celldm(2)=   0.000000  celldm(3)=   0.000000
     celldm(4)=   0.000000  celldm(5)=   0.000000  celldm(6)=   0.000000

     crystal axes: (cart. coord. in units of alat)
               a(1) = (   1.000000   0.000000   0.000000 )  
               a(2) = (   0.000000   0.981736   0.000000 )  
               a(3) = (   0.000000   0.000000   0.969284 )  

     reciprocal axes: (cart. coord. in units 2 pi/alat)
               b(1) = (  1.000000  0.000000  0.000000 )  
               b(2) = (  0.000000  1.018604  0.000000 )  
               b(3) = (  0.000000  0.000000  1.031689 )  


     PseudoPot. # 1 for Ba read from file:
     ./ba.upf
     MD5 check sum: 569c1dde556b1c81f66e1af894da4ae7
     Pseudo is Norm-conserving, Zval = 10.0
     Generated by new atomic code, or converted to UPF format
     Using radial grid of 1179 points,  3 beta functions with: 
                l(1) =   0
                l(2) =   1
                l(3) =   2

     PseudoPot. # 2 for O  read from file:
     ./o.upf
     MD5 check sum: 6afdad5913fe366ac5de9e6b2d735f4a
     Pseudo is Norm-conserving, Zval =  6.0
     Generated by new atomic code, or converted to UPF format
     Using radial grid of 1130 points,  1 beta functions with: 
                l(1) =   1

     PseudoPot. # 3 for Zr read from file:
     ./zr.upf
     MD5 check sum: 4323fbb0604ce3758ff2f6a711565820
     Pseudo is Norm-conserving, Zval = 12.0
     Generated by new atomic code, or converted to UPF format
     Using radial grid of 1171 points,  3 beta functions with: 
                l(1) =   0
                l(2) =   1
                l(3) =   2

     PseudoPot. # 4 for Ca read from file:
     ./ca.upf
     MD5 check sum: 9d40c44c50ef0ff3e83632165cb52c7c
     Pseudo is Norm-conserving, Zval = 10.0
     Generated by new atomic code, or converted to UPF format
     Using radial grid of 1153 points,  3 beta functions with: 
                l(1) =   0
                l(2) =   1
                l(3) =   2

     atomic species   valence    mass     pseudopotential
        Ba            10.00   137.32700     Ba( 1.00)
        O              6.00    15.99940     O ( 1.00)
        Zr            12.00    47.86700     Zr( 1.00)
        Ca            10.00    40.08700     Ca( 1.00)

     No symmetry found


                                    s                        frac. trans.

      isym =  1     identity                                     

 cryst.   s( 1) = (     1          0          0      )
                  (     0          1          0      )
                  (     0          0          1      )

 cart.    s( 1) = (  1.0000000  0.0000000  0.0000000 )
                  (  0.0000000  1.0000000  0.0000000 )
                  (  0.0000000  0.0000000  1.0000000 )


   Cartesian axes

     site n.     atom                  positions (alat units)
         1           Ca  tau(   1) = (   0.0624785   0.0254325   0.0002445  )
         2           Ca  tau(   2) = (   0.5624675   0.5162984   0.0002528  )
         3           Ca  tau(   3) = (   0.0624835   0.4653257   0.0002623  )
         4           Ca  tau(   4) = (   0.5624925  -0.0255358   0.0002533  )
         5           Ba  tau(   5) = (   0.0067634   0.0015334   0.4849060  )
         6           Ba  tau(   6) = (   0.0067833   0.4893745   0.4849045  )
         7           Ba  tau(   7) = (   0.5067741  -0.0014990   0.4848915  )
         8           Ba  tau(   8) = (   0.5067667   0.4923987   0.4848918  )
         9           Zr  tau(   9) = (   0.2633438   0.2454368   0.2416007  )
        10           Zr  tau(  10) = (   0.2633963   0.2454263   0.7281122  )
        11           Zr  tau(  11) = (   0.2546782   0.7362962   0.2332053  )
        12           Zr  tau(  12) = (   0.2547186   0.7362773   0.7366090  )
        13           Zr  tau(  13) = (   0.7546872   0.2454292   0.2332045  )
        14           Zr  tau(  14) = (   0.7547181   0.2454124   0.7366048  )
        15           Zr  tau(  15) = (   0.7633435   0.7363111   0.2415995  )
        16           Zr  tau(  16) = (   0.7633894   0.7362997   0.7281102  )
        17           O   tau(  17) = (   0.2346016   0.0006917   0.2306155  )
        18           O   tau(  18) = (   0.2347258   0.0006741   0.7391267  )
        19           O   tau(  19) = (   0.2344989   0.4901870   0.2307586  )
        20           O   tau(  20) = (   0.2345131   0.4901688   0.7389886  )
        21           O   tau(  21) = (   0.7344944  -0.0006736   0.2308048  )
        22           O   tau(  22) = (   0.7345010  -0.0006912   0.7389448  )
        23           O   tau(  23) = (   0.7346123   0.4915657   0.2305775  )
        24           O   tau(  24) = (   0.7347304   0.4915493   0.7391679  )
        25           O   tau(  25) = (   0.2711474   0.2455903   0.0002296  )
        26           O   tau(  26) = (   0.2092332   0.2454047   0.4848696  )
        27           O   tau(  27) = (   0.1761360   0.7362484   0.0002518  )
        28           O   tau(  28) = (   0.2858845   0.7363382   0.4848914  )
        29           O   tau(  29) = (   0.6761454   0.2453506   0.0002456  )
        30           O   tau(  30) = (   0.7858923   0.2455073   0.4848846  )
        31           O   tau(  31) = (   0.7711356   0.7365427   0.0002307  )
        32           O   tau(  32) = (   0.7092290   0.7362621   0.4848716  )
        33           O   tau(  33) = (  -0.0033143   0.2453886   0.1873759  )
        34           O   tau(  34) = (  -0.0032860   0.2452950   0.7823745  )
        35           O   tau(  35) = (  -0.0010112   0.7363565   0.2870979  )
        36           O   tau(  36) = (  -0.0009648   0.7363745   0.6827216  )
        37           O   tau(  37) = (   0.4989930   0.2454976   0.2870861  )
        38           O   tau(  38) = (   0.4990372   0.2455156   0.6827090  )
        39           O   tau(  39) = (   0.4966803   0.7362510   0.1873876  )
        40           O   tau(  40) = (   0.4967124   0.7361662   0.7823765  )

   Crystallographic axes

     site n.     atom                  positions (cryst. coord.)
         1           Ca  tau(   1) = (  0.0624785  0.0259057  0.0002522  )
         2           Ca  tau(   2) = (  0.5624675  0.5259034  0.0002608  )
         3           Ca  tau(   3) = (  0.0624835  0.4739825  0.0002706  )
         4           Ca  tau(   4) = (  0.5624925 -0.0260109  0.0002613  )
         5           Ba  tau(   5) = (  0.0067634  0.0015619  0.5002722  )
         6           Ba  tau(   6) = (  0.0067833  0.4984787  0.5002707  )
         7           Ba  tau(   7) = (  0.5067741 -0.0015269  0.5002573  )
         8           Ba  tau(   8) = (  0.5067667  0.5015591  0.5002576  )
         9           Zr  tau(   9) = (  0.2633438  0.2500029  0.2492568  )
        10           Zr  tau(  10) = (  0.2633963  0.2499922  0.7511854  )
        11           Zr  tau(  11) = (  0.2546782  0.7499940  0.2405954  )
        12           Zr  tau(  12) = (  0.2547186  0.7499747  0.7599515  )
        13           Zr  tau(  13) = (  0.7546872  0.2499950  0.2405945  )
        14           Zr  tau(  14) = (  0.7547181  0.2499779  0.7599472  )
        15           Zr  tau(  15) = (  0.7633435  0.7500091  0.2492556  )
        16           Zr  tau(  16) = (  0.7633894  0.7499976  0.7511833  )
        17           O   tau(  17) = (  0.2346016  0.0007046  0.2379235  )
        18           O   tau(  18) = (  0.2347258  0.0006867  0.7625489  )
        19           O   tau(  19) = (  0.2344989  0.4993063  0.2380711  )
        20           O   tau(  20) = (  0.2345131  0.4992877  0.7624065  )
        21           O   tau(  21) = (  0.7344944 -0.0006861  0.2381188  )
        22           O   tau(  22) = (  0.7345010 -0.0007041  0.7623613  )
        23           O   tau(  23) = (  0.7346123  0.5007106  0.2378843  )
        24           O   tau(  24) = (  0.7347304  0.5006939  0.7625915  )
        25           O   tau(  25) = (  0.2711474  0.2501592  0.0002369  )
        26           O   tau(  26) = (  0.2092332  0.2499701  0.5002347  )
        27           O   tau(  27) = (  0.1761360  0.7499453  0.0002598  )
        28           O   tau(  28) = (  0.2858845  0.7500368  0.5002571  )
        29           O   tau(  29) = (  0.6761454  0.2499150  0.0002534  )
        30           O   tau(  30) = (  0.7858923  0.2500746  0.5002501  )
        31           O   tau(  31) = (  0.7711356  0.7502451  0.0002380  )
        32           O   tau(  32) = (  0.7092290  0.7499592  0.5002367  )
        33           O   tau(  33) = ( -0.0033143  0.2499537  0.1933136  )
        34           O   tau(  34) = ( -0.0032860  0.2498584  0.8071672  )
        35           O   tau(  35) = ( -0.0010112  0.7500554  0.2961958  )
        36           O   tau(  36) = ( -0.0009648  0.7500737  0.7043564  )
        37           O   tau(  37) = (  0.4989930  0.2500647  0.2961836  )
        38           O   tau(  38) = (  0.4990372  0.2500831  0.7043435  )
        39           O   tau(  39) = (  0.4966803  0.7499479  0.1933257  )
        40           O   tau(  40) = (  0.4967124  0.7498615  0.8071693  )

     number of k points=    36
                       cart. coord. in units 2pi/alat
        k(    1) = (   0.0000000   0.0000000   0.0000000), wk =   0.0312500
        k(    2) = (   0.0000000   0.0000000   0.2579223), wk =   0.0625000
        k(    3) = (   0.0000000   0.0000000  -0.5158445), wk =   0.0312500
        k(    4) = (   0.0000000   0.2546509   0.0000000), wk =   0.0625000
        k(    5) = (   0.0000000   0.2546509   0.2579223), wk =   0.0625000
        k(    6) = (   0.0000000   0.2546509  -0.5158445), wk =   0.0625000
        k(    7) = (   0.0000000   0.2546509  -0.2579223), wk =   0.0625000
        k(    8) = (   0.0000000  -0.5093018   0.0000000), wk =   0.0312500
        k(    9) = (   0.0000000  -0.5093018   0.2579223), wk =   0.0625000
        k(   10) = (   0.0000000  -0.5093018  -0.5158445), wk =   0.0312500
        k(   11) = (   0.2500000   0.0000000   0.0000000), wk =   0.0625000
        k(   12) = (   0.2500000   0.0000000   0.2579223), wk =   0.0625000
        k(   13) = (   0.2500000   0.0000000  -0.5158445), wk =   0.0625000
        k(   14) = (   0.2500000   0.0000000  -0.2579223), wk =   0.0625000
        k(   15) = (   0.2500000   0.2546509   0.0000000), wk =   0.0625000
        k(   16) = (   0.2500000   0.2546509   0.2579223), wk =   0.0625000
        k(   17) = (   0.2500000   0.2546509  -0.5158445), wk =   0.0625000
        k(   18) = (   0.2500000   0.2546509  -0.2579223), wk =   0.0625000
        k(   19) = (   0.2500000  -0.5093018   0.0000000), wk =   0.0625000
        k(   20) = (   0.2500000  -0.5093018   0.2579223), wk =   0.0625000
        k(   21) = (   0.2500000  -0.5093018  -0.5158445), wk =   0.0625000
        k(   22) = (   0.2500000  -0.5093018  -0.2579223), wk =   0.0625000
        k(   23) = (   0.2500000  -0.2546509   0.0000000), wk =   0.0625000
        k(   24) = (   0.2500000  -0.2546509   0.2579223), wk =   0.0625000
        k(   25) = (   0.2500000  -0.2546509  -0.5158445), wk =   0.0625000
        k(   26) = (   0.2500000  -0.2546509  -0.2579223), wk =   0.0625000
        k(   27) = (  -0.5000000   0.0000000   0.0000000), wk =   0.0312500
        k(   28) = (  -0.5000000   0.0000000   0.2579223), wk =   0.0625000
        k(   29) = (  -0.5000000   0.0000000  -0.5158445), wk =   0.0312500
        k(   30) = (  -0.5000000   0.2546509   0.0000000), wk =   0.0625000
        k(   31) = (  -0.5000000   0.2546509   0.2579223), wk =   0.0625000
        k(   32) = (  -0.5000000   0.2546509  -0.5158445), wk =   0.0625000
        k(   33) = (  -0.5000000   0.2546509  -0.2579223), wk =   0.0625000
        k(   34) = (  -0.5000000  -0.5093018   0.0000000), wk =   0.0312500
        k(   35) = (  -0.5000000  -0.5093018   0.2579223), wk =   0.0625000
        k(   36) = (  -0.5000000  -0.5093018  -0.5158445), wk =   0.0312500

                       cryst. coord.
        k(    1) = (   0.0000000   0.0000000   0.0000000), wk =   0.0312500
        k(    2) = (   0.0000000   0.0000000   0.2500000), wk =   0.0625000
        k(    3) = (   0.0000000   0.0000000  -0.5000000), wk =   0.0312500
        k(    4) = (   0.0000000   0.2500000   0.0000000), wk =   0.0625000
        k(    5) = (   0.0000000   0.2500000   0.2500000), wk =   0.0625000
        k(    6) = (   0.0000000   0.2500000  -0.5000000), wk =   0.0625000
        k(    7) = (   0.0000000   0.2500000  -0.2500000), wk =   0.0625000
        k(    8) = (   0.0000000  -0.5000000   0.0000000), wk =   0.0312500
        k(    9) = (   0.0000000  -0.5000000   0.2500000), wk =   0.0625000
        k(   10) = (   0.0000000  -0.5000000  -0.5000000), wk =   0.0312500
        k(   11) = (   0.2500000   0.0000000   0.0000000), wk =   0.0625000
        k(   12) = (   0.2500000   0.0000000   0.2500000), wk =   0.0625000
        k(   13) = (   0.2500000   0.0000000  -0.5000000), wk =   0.0625000
        k(   14) = (   0.2500000   0.0000000  -0.2500000), wk =   0.0625000
        k(   15) = (   0.2500000   0.2500000   0.0000000), wk =   0.0625000
        k(   16) = (   0.2500000   0.2500000   0.2500000), wk =   0.0625000
        k(   17) = (   0.2500000   0.2500000  -0.5000000), wk =   0.0625000
        k(   18) = (   0.2500000   0.2500000  -0.2500000), wk =   0.0625000
        k(   19) = (   0.2500000  -0.5000000   0.0000000), wk =   0.0625000
        k(   20) = (   0.2500000  -0.5000000   0.2500000), wk =   0.0625000
        k(   21) = (   0.2500000  -0.5000000  -0.5000000), wk =   0.0625000
        k(   22) = (   0.2500000  -0.5000000  -0.2500000), wk =   0.0625000
        k(   23) = (   0.2500000  -0.2500000   0.0000000), wk =   0.0625000
        k(   24) = (   0.2500000  -0.2500000   0.2500000), wk =   0.0625000
        k(   25) = (   0.2500000  -0.2500000  -0.5000000), wk =   0.0625000
        k(   26) = (   0.2500000  -0.2500000  -0.2500000), wk =   0.0625000
        k(   27) = (  -0.5000000   0.0000000   0.0000000), wk =   0.0312500
        k(   28) = (  -0.5000000   0.0000000   0.2500000), wk =   0.0625000
        k(   29) = (  -0.5000000   0.0000000  -0.5000000), wk =   0.0312500
        k(   30) = (  -0.5000000   0.2500000   0.0000000), wk =   0.0625000
        k(   31) = (  -0.5000000   0.2500000   0.2500000), wk =   0.0625000
        k(   32) = (  -0.5000000   0.2500000  -0.5000000), wk =   0.0625000
        k(   33) = (  -0.5000000   0.2500000  -0.2500000), wk =   0.0625000
        k(   34) = (  -0.5000000  -0.5000000   0.0000000), wk =   0.0312500
        k(   35) = (  -0.5000000  -0.5000000   0.2500000), wk =   0.0625000
        k(   36) = (  -0.5000000  -0.5000000  -0.5000000), wk =   0.0312500

     Dense  grid:   185813 G-vectors     FFT dimensions: (  72,  72,  72)

     Dynamical RAM for                 wfc:       4.72 MB

     Dynamical RAM for     wfc (w. buffer):      18.90 MB

     Dynamical RAM for           str. fact:       0.95 MB

     Dynamical RAM for           local pot:       0.00 MB

     Dynamical RAM for          nlocal pot:       6.38 MB

     Dynamical RAM for                qrad:       2.60 MB

     Dynamical RAM for          rho,v,vnew:       1.42 MB

     Dynamical RAM for               rhoin:       0.47 MB

     Dynamical RAM for            rho*nmix:       3.78 MB

     Dynamical RAM for           G-vectors:       1.00 MB

     Dynamical RAM for          h,s,v(r/c):       0.51 MB

     Dynamical RAM for          <psi|beta>:       0.53 MB

     Dynamical RAM for                 psi:       9.45 MB

     Dynamical RAM for                hpsi:       9.45 MB

     Dynamical RAM for      wfcinit/wfcrot:      15.49 MB

     Estimated static dynamical RAM per process >      37.86 MB

     Estimated max dynamical RAM per process >      57.80 MB

     Estimated total dynamical RAM >      10.84 GB

     Initial potential from superposition of free atoms

     starting charge  271.99996, renormalised to  320.00000
     Starting wfcs are  240 randomized atomic wfcs

     total cpu time spent up to now is        2.0 secs

     Self-consistent Calculation

     iteration #  1     ecut=    50.00 Ry     beta= 0.70
     Davidson diagonalization with overlap
     ethr =  1.00E-02,  avg # of iterations =  2.2

     total cpu time spent up to now is        4.4 secs

     total energy              =   -2007.14150287 Ry
     estimated scf accuracy    <      18.61289701 Ry

     iteration #  2     ecut=    50.00 Ry     beta= 0.70
     Davidson diagonalization with overlap
     ethr =  5.82E-03,  avg # of iterations =  2.0

     total cpu time spent up to now is        6.6 secs

     total energy              =   -2010.83818319 Ry
     estimated scf accuracy    <       0.93676688 Ry

     iteration #  3     ecut=    50.00 Ry     beta= 0.70
     Davidson diagonalization with overlap
     ethr =  2.93E-04,  avg # of iterations =  4.0

     total cpu time spent up to now is        9.3 secs

     total energy              =   -2011.05152146 Ry
     estimated scf accuracy    <       0.32186683 Ry

     iteration #  4     ecut=    50.00 Ry     beta= 0.70
     Davidson diagonalization with overlap
     ethr =  1.01E-04,  avg # of iterations =  4.0

     total cpu time spent up to now is       11.7 secs

     total energy              =   -2011.12563355 Ry
     estimated scf accuracy    <       0.03616668 Ry

     iteration #  5     ecut=    50.00 Ry     beta= 0.70
     Davidson diagonalization with overlap
     ethr =  1.13E-05,  avg # of iterations =  4.4

     total cpu time spent up to now is       14.3 secs

     total energy              =   -2011.13509802 Ry
     estimated scf accuracy    <       0.01188050 Ry

     iteration #  6     ecut=    50.00 Ry     beta= 0.70
     Davidson diagonalization with overlap
     ethr =  3.71E-06,  avg # of iterations =  3.4

     total cpu time spent up to now is       16.6 secs

     total energy              =   -2011.13744545 Ry
     estimated scf accuracy    <       0.00039547 Ry

     iteration #  7     ecut=    50.00 Ry     beta= 0.70
     Davidson diagonalization with overlap
     ethr =  1.24E-07,  avg # of iterations =  6.0

     total cpu time spent up to now is       20.1 secs

     total energy              =   -2011.13777816 Ry
     estimated scf accuracy    <       0.00061412 Ry

     iteration #  8     ecut=    50.00 Ry     beta= 0.70
     Davidson diagonalization with overlap
     ethr =  1.24E-07,  avg # of iterations =  3.3

     total cpu time spent up to now is       22.3 secs

     total energy              =   -2011.13778862 Ry
     estimated scf accuracy    <       0.00012296 Ry

     iteration #  9     ecut=    50.00 Ry     beta= 0.70
     Davidson diagonalization with overlap
     ethr =  3.84E-08,  avg # of iterations =  5.2

     total cpu time spent up to now is       25.2 secs

     total energy              =   -2011.13783985 Ry
     estimated scf accuracy    <       0.00002668 Ry

     iteration # 10     ecut=    50.00 Ry     beta= 0.70
     Davidson diagonalization with overlap
     ethr =  8.34E-09,  avg # of iterations =  2.2

     total cpu time spent up to now is       27.2 secs

     total energy              =   -2011.13783808 Ry
     estimated scf accuracy    <       0.00001272 Ry

     iteration # 11     ecut=    50.00 Ry     beta= 0.70
     Davidson diagonalization with overlap
     ethr =  3.98E-09,  avg # of iterations =  2.8

     total cpu time spent up to now is       29.3 secs

     total energy              =   -2011.13783843 Ry
     estimated scf accuracy    <       0.00000234 Ry

     iteration # 12     ecut=    50.00 Ry     beta= 0.70
     Davidson diagonalization with overlap
     ethr =  7.32E-10,  avg # of iterations =  5.0

     total cpu time spent up to now is       32.1 secs

     total energy              =   -2011.13783954 Ry
     estimated scf accuracy    <       0.00000025 Ry

     iteration # 13     ecut=    50.00 Ry     beta= 0.70
     Davidson diagonalization with overlap
     ethr =  7.87E-11,  avg # of iterations =  4.9

     total cpu time spent up to now is       34.5 secs

     total energy              =   -2011.13783951 Ry
     estimated scf accuracy    <       0.00000016 Ry

     iteration # 14     ecut=    50.00 Ry     beta= 0.70
     Davidson diagonalization with overlap
     ethr =  5.13E-11,  avg # of iterations =  2.8

     total cpu time spent up to now is       36.6 secs

     total energy              =   -2011.13783952 Ry
     estimated scf accuracy    <       0.00000002 Ry

     iteration # 15     ecut=    50.00 Ry     beta= 0.70
     Davidson diagonalization with overlap
     ethr =  7.49E-12,  avg # of iterations =  5.0

     total cpu time spent up to now is       39.5 secs

     total energy              =   -2011.13783953 Ry
     estimated scf accuracy    <          3.6E-09 Ry

     iteration # 16     ecut=    50.00 Ry     beta= 0.70
     Davidson diagonalization with overlap
     ethr =  1.13E-12,  avg # of iterations =  5.1

     total cpu time spent up to now is       42.0 secs

     total energy              =   -2011.13783953 Ry
     estimated scf accuracy    <          1.2E-09 Ry

     iteration # 17     ecut=    50.00 Ry     beta= 0.70
     Davidson diagonalization with overlap
     ethr =  3.85E-13,  avg # of iterations =  4.8

     total cpu time spent up to now is       44.4 secs

     End of self-consistent calculation

          k = 0.0000 0.0000 0.0000 ( 23183 PWs)   bands (ev):

   -35.7650 -35.7647 -35.7583 -35.7580 -35.6749 -35.6747 -35.6679 -35.6677
   -29.0300 -29.0283 -29.0232 -29.0215 -16.3621 -16.3535 -16.2865 -16.2809
   -16.2795 -16.2704 -16.2667 -16.2489 -16.2285 -16.1433 -16.1379 -16.1299
   -15.9882 -15.9863 -15.9763 -15.9712 -15.9708 -15.9634 -15.9511 -15.9468
   -15.9415 -15.9397 -15.9347 -15.9276 -15.9137 -15.9068 -15.8871 -15.8498
   -10.8916 -10.8468 -10.8423 -10.8371 -10.8319 -10.8144 -10.8030 -10.7953
   -10.7666 -10.7614 -10.6463 -10.6427  -7.4272  -7.3667  -7.2930  -7.2854
    -7.2457  -7.2420  -7.0846  -7.0587  -6.8729  -6.8640  -6.8607  -6.8570
    -6.2035  -6.1808  -6.1765  -6.1594  -6.1579  -6.1520  -6.0872  -6.0811
    -6.0688  -6.0346  -6.0242  -6.0198  -1.7225  -1.5391  -1.4201  -1.3903
    -1.2981  -1.2965  -1.2944  -1.2936  -1.2908  -1.2009  -1.1960  -1.0526
     4.9089   4.9198   4.9354   5.0275   5.0341   5.0528   5.1015   5.1387
     5.1573   5.2951   5.3063   5.3123   5.3590   5.4928   5.5806   5.5945
     5.9310   5.9866   6.3104   6.3363   6.4604   6.4936   6.5407   6.6285
     6.6957   6.7252   6.7503   6.7548   6.7700   6.7964   6.8549   6.8577
     6.9532   6.9817   7.0734   7.0800   7.0992   7.1039   7.1196   7.1960
     7.2144   7.2874   7.3210   7.3837   7.4793   7.5273   7.6117   7.6624
     7.6987   7.7121   7.7506   7.7591   7.8815   7.9227   8.0139   8.0527
     8.0622   8.1585   8.2922   8.3285   8.3299   8.3454   8.3678   8.3695
     8.4184   8.4606   8.4679   8.5211   8.5313   8.5793   8.6758   8.7278

     occupation numbers 
     1.0000   1.0000   1.0000   1.0000   1.0000   1.0000   1.0000   1.0000
     1.0000   1.0000   1.0000   1.0000   1.0000   1.0000   1.0000   1.0000
     1.0000   1.0000   1.0000   1.0000   1.0000   1.0000   1.0000   1.0000
     1.0000   1.0000   1.0000   1.0000   1.0000   1.0000   1.0000   1.0000
     1.0000   1.0000   1.0000   1.0000   1.0000   1.0000   1.0000   1.0000
     1.0000   1.0000   1.0000   1.0000   1.0000   1.0000   1.0000   1.0000
     1.0000   1.0000   1.0000   1.0000   1.0000   1.0000   1.0000   1.0000
     1.0000   1.0000   1.0000   1.0000   1.0000   1.0000   1.0000   1.0000
     1.0000   1.0000   1.0000   1.0000   1.0000   1.0000   1.0000   1.0000
     1.0000   1.0000   1.0000   1.0000   1.0000   1.0000   1.0000   1.0000
     1.0000   1.0000   1.0000   1.0000   1.0000   1.0000   1.0000   1.0000
     1.0000   1.0000   1.0000   1.0000   1.0000   1.0000   1.0000   1.0000
     1.0000   1.0000   1.0000   1.0000   1.0000   1.0000   1.0000   1.0000
     1.0000   1.0000   1.0000   1.0000   1.0000   1.0000   1.0000   1.0000
     1.0000   1.0000   1.0000   1.0000   1.0000   1.0000   1.0000   1.0000
     1.0000   1.0000   1.0000   1.0000   1.0000   1.0000   1.0000   1.0000
     1.0000   1.0000   1.0000   1.0000   1.0000   1.0000   1.0000   1.0000
     1.0000   1.0000   1.0000   1.0000   1.0000   1.0000   1.0000   1.0000
     1.0000   1.0000   1.0000   1.0000   1.0000   1.0000   1.0000   1.0000
     1.0000   1.0000   1.0000   1.0000   1.0000   1.0000   1.0000   1.0000

          k = 0.0000 0.0000 0.2579 ( 23209 PWs)   bands (ev):

   -35.7642 -35.7639 -35.7590 -35.7587 -35.6739 -35.6737 -35.6689 -35.6687
   -29.0301 -29.0283 -29.0233 -29.0215 -16.3531 -16.3224 -16.2803 -16.2794
   -16.2736 -16.2720 -16.2290 -16.2153 -16.2041 -16.1415 -16.1371 -16.1283
   -16.0486 -16.0039 -15.9940 -15.9873 -15.9861 -15.9849 -15.9777 -15.9733
   -15.9379 -15.9354 -15.9347 -15.9255 -15.9150 -15.8866 -15.8864 -15.8480
   -10.8901 -10.8461 -10.8408 -10.8358 -10.8319 -10.8144 -10.8026 -10.7953
   -10.7662 -10.7611 -10.6463 -10.6427  -7.4030  -7.3521  -7.2521  -7.2375
    -7.2252  -7.1177  -6.9820  -6.9669  -6.8752  -6.8698  -6.8135  -6.8032
    -6.3053  -6.3021  -6.2411  -6.2185  -6.1972  -6.1936  -6.1590  -6.1395
    -6.0915  -6.0844  -6.0317  -6.0262  -1.7214  -1.5410  -1.4198  -1.3906
    -1.2997  -1.2964  -1.2957  -1.2936  -1.2916  -1.2023  -1.1960  -1.0543
     4.9798   5.0156   5.0307   5.0365   5.0471   5.0582   5.2024   5.2628
     5.3297   5.4193   5.4350   5.4778   5.4971   5.5283   5.6662   5.7239
     5.8818   5.9390   6.0692   6.2240   6.3201   6.3483   6.4966   6.5655
     6.5817   6.5884   6.7118   6.7298   6.7962   6.8436   6.8649   6.8823
     6.9148   6.9473   6.9552   7.1155   7.1177   7.1343   7.1427   7.2326
     7.3064   7.3367   7.3848   7.4609   7.5222   7.5274   7.5941   7.6796
     7.6822   7.6882   7.7351   7.7878   7.8076   7.9236   8.0355   8.0418
     8.0775   8.0869   8.1209   8.1402   8.1632   8.2532   8.3038   8.3167
     8.4075   8.4284   8.4516   8.4712   8.4820   8.5733   8.6547   8.7029

     occupation numbers 
     1.0000   1.0000   1.0000   1.0000   1.0000   1.0000   1.0000   1.0000
     1.0000   1.0000   1.0000   1.0000   1.0000   1.0000   1.0000   1.0000
     1.0000   1.0000   1.0000   1.0000   1.0000   1.0000   1.0000   1.0000
     1.0000   1.0000   1.0000   1.0000   1.0000   1.0000   1.0000   1.0000
     1.0000   1.0000   1.0000   1.0000   1.0000   1.0000   1.0000   1.0000
     1.0000   1.0000   1.0000   1.0000   1.0000   1.0000   1.0000   1.0000
     1.0000   1.0000   1.0000   1.0000   1.0000   1.0000   1.0000   1.0000
     1.0000   1.0000   1.0000   1.0000   1.0000   1.0000   1.0000   1.0000
     1.0000   1.0000   1.0000   1.0000   1.0000   1.0000   1.0000   1.0000
     1.0000   1.0000   1.0000   1.0000   1.0000   1.0000   1.0000   1.0000
     1.0000   1.0000   1.0000   1.0000   1.0000   1.0000   1.0000   1.0000
     1.0000   1.0000   1.0000   1.0000   1.0000   1.0000   1.0000   1.0000
     1.0000   1.0000   1.0000   1.0000   1.0000   1.0000   1.0000   1.0000
     1.0000   1.0000   1.0000   1.0000   1.0000   1.0000   1.0000   1.0000
     1.0000   1.0000   1.0000   1.0000   1.0000   1.0000   1.0000   1.0000
     1.0000   1.0000   1.0000   1.0000   1.0000   1.0000   1.0000   1.0000
     1.0000   1.0000   1.0000   1.0000   1.0000   1.0000   1.0000   1.0000
     1.0000   1.0000   1.0000   1.0000   1.0000   1.0000   1.0000   1.0000
     1.0000   1.0000   1.0000   1.0000   1.0000   1.0000   1.0000   1.0000
     1.0000   1.0000   1.0000   1.0000   1.0000   1.0000   1.0000   1.0000

          k = 0.0000 0.0000-0.5158 ( 23170 PWs)   bands (ev):

   -35.7630 -35.7627 -35.7602 -35.7599 -35.6719 -35.6716 -35.6710 -35.6707
   -29.0300 -29.0283 -29.0232 -29.0214 -16.3528 -16.2810 -16.2760 -16.2754
   -16.2667 -16.2558 -16.1785 -16.1741 -16.1491 -16.1460 -16.1243 -16.1035
   -16.0936 -16.0913 -16.0690 -16.0659 -15.9829 -15.9820 -15.9806 -15.9766
   -15.9348 -15.9347 -15.9323 -15.9288 -15.9201 -15.8861 -15.8714 -15.8467
   -10.8886 -10.8453 -10.8393 -10.8345 -10.8319 -10.8144 -10.8022 -10.7953
   -10.7659 -10.7607 -10.6463 -10.6427  -7.4328  -7.3123  -7.2555  -7.2061
    -7.1252  -6.9089  -6.8885  -6.8823  -6.7932  -6.7699  -6.6284  -6.6009
    -6.5686  -6.5678  -6.5378  -6.5290  -6.2351  -6.1866  -6.1704  -6.1236
    -6.1007  -6.0921  -6.0360  -6.0199  -1.7203  -1.5431  -1.4196  -1.3909
    -1.3012  -1.2965  -1.2964  -1.2934  -1.2930  -1.2037  -1.1961  -1.0560
     5.0174   5.0390   5.0400   5.0408   5.1335   5.3016   5.3737   5.3838
     5.3840   5.4425   5.4596   5.5065   5.5420   5.7311   5.7724   5.8100
     6.0506   6.1092   6.1551   6.2208   6.2501   6.3347   6.3601   6.4352
     6.4816   6.5531   6.5855   6.5903   6.6890   6.7589   6.8488   6.8818
     6.8885   6.9540   6.9813   7.0854   7.1217   7.1482   7.2021   7.2167
     7.3083   7.3376   7.3550   7.3614   7.3939   7.4130   7.4765   7.5531
     7.5955   7.6555   7.6566   7.6674   7.8179   8.0576   8.0798   8.1221
     8.1306   8.1501   8.1717   8.1775   8.1840   8.2500   8.2540   8.2550
     8.2667   8.3395   8.3537   8.3745   8.4705   8.5005   8.6167   8.6723

     occupation numbers 
     1.0000   1.0000   1.0000   1.0000   1.0000   1.0000   1.0000   1.0000
     1.0000   1.0000   1.0000   1.0000   1.0000   1.0000   1.0000   1.0000
     1.0000   1.0000   1.0000   1.0000   1.0000   1.0000   1.0000   1.0000
     1.0000   1.0000   1.0000   1.0000   1.0000   1.0000   1.0000   1.0000
     1.0000   1.0000   1.0000   1.0000   1.0000   1.0000   1.0000   1.0000
     1.0000   1.0000   1.0000   1.0000   1.0000   1.0000   1.0000   1.0000
     1.0000   1.0000   1.0000   1.0000   1.0000   1.0000   1.0000   1.0000
     1.0000   1.0000   1.0000   1.0000   1.0000   1.0000   1.0000   1.0000
     1.0000   1.0000   1.0000   1.0000   1.0000   1.0000   1.0000   1.0000
     1.0000   1.0000   1.0000   1.0000   1.0000   1.0000   1.0000   1.0000
     1.0000   1.0000   1.0000   1.0000   1.0000   1.0000   1.0000   1.0000
     1.0000   1.0000   1.0000   1.0000   1.0000   1.0000   1.0000   1.0000
     1.0000   1.0000   1.0000   1.0000   1.0000   1.0000   1.0000   1.0000
     1.0000   1.0000   1.0000   1.0000   1.0000   1.0000   1.0000   1.0000
     1.0000   1.0000   1.0000   1.0000   1.0000   1.0000   1.0000   1.0000
     1.0000   1.0000   1.0000   1.0000   1.0000   1.0000   1.0000   1.0000
     1.0000   1.0000   1.0000   1.0000   1.0000   1.0000   1.0000   1.0000
     1.0000   1.0000   1.0000   1.0000   1.0000   1.0000   1.0000   1.0000
     1.0000   1.0000   1.0000   1.0000   1.0000   1.0000   1.0000   1.0000
     1.0000   1.0000   1.0000   1.0000   1.0000   1.0000   1.0000   1.0000

          k = 0.0000 0.2547 0.0000 ( 23193 PWs)   bands (ev):

   -35.7649 -35.7647 -35.7582 -35.7580 -35.6749 -35.6748 -35.6679 -35.6678
   -29.0296 -29.0283 -29.0232 -29.0219 -16.3515 -16.3269 -16.2797 -16.2605
   -16.2533 -16.2411 -16.2409 -16.2330 -16.2243 -16.1591 -16.1419 -16.1310
   -16.0564 -16.0296 -16.0211 -16.0138 -15.9691 -15.9641 -15.9505 -15.9472
   -15.9442 -15.9424 -15.9124 -15.9121 -15.9077 -15.9028 -15.8884 -15.8570
   -10.8845 -10.8537 -10.8335 -10.8238 -10.8199 -10.8120 -10.7943 -10.7883
   -10.7708 -10.7654 -10.6692 -10.6635  -7.3832  -7.3226  -7.1970  -7.1780
    -7.1608  -7.0959  -7.0442  -7.0359  -6.8804  -6.8594  -6.8473  -6.8461
    -6.3751  -6.3497  -6.3415  -6.3227  -6.1465  -6.1450  -6.0942  -6.0908
    -6.0613  -6.0521  -6.0355  -6.0305  -1.6733  -1.5279  -1.4484  -1.4033
    -1.3801  -1.2843  -1.2671  -1.2557  -1.2453  -1.2326  -1.2082  -1.0762
     5.0044   5.0124   5.0155   5.0223   5.0826   5.2291   5.2636   5.3042
     5.3609   5.3766   5.3942   5.4202   5.5015   5.5363   5.6316   5.7025
     5.8266   6.0075   6.0711   6.1306   6.2298   6.2418   6.4080   6.5891
     6.6657   6.7073   6.7476   6.7752   6.7958   6.8140   6.8490   6.9081
     6.9202   7.0346   7.0872   7.1076   7.1242   7.1248   7.1371   7.2008
     7.2233   7.2455   7.4342   7.4552   7.5716   7.6090   7.6262   7.6266
     7.6695   7.7174   7.7232   7.7685   7.8653   7.8679   7.8961   7.9081
     8.0280   8.0583   8.0925   8.1802   8.3042   8.3170   8.3419   8.3807
     8.3920   8.3935   8.4655   8.4716   8.4858   8.4897   8.6349   8.6408

     occupation numbers 
     1.0000   1.0000   1.0000   1.0000   1.0000   1.0000   1.0000   1.0000
     1.0000   1.0000   1.0000   1.0000   1.0000   1.0000   1.0000   1.0000
     1.0000   1.0000   1.0000   1.0000   1.0000   1.0000   1.0000   1.0000
     1.0000   1.0000   1.0000   1.0000   1.0000   1.0000   1.0000   1.0000
     1.0000   1.0000   1.0000   1.0000   1.0000   1.0000   1.0000   1.0000
     1.0000   1.0000   1.0000   1.0000   1.0000   1.0000   1.0000   1.0000
     1.0000   1.0000   1.0000   1.0000   1.0000   1.0000   1.0000   1.0000
     1.0000   1.0000   1.0000   1.0000   1.0000   1.0000   1.0000   1.0000
     1.0000   1.0000   1.0000   1.0000   1.0000   1.0000   1.0000   1.0000
     1.0000   1.0000   1.0000   1.0000   1.0000   1.0000   1.0000   1.0000
     1.0000   1.0000   1.0000   1.0000   1.0000   1.0000   1.0000   1.0000
     1.0000   1.0000   1.0000   1.0000   1.0000   1.0000   1.0000   1.0000
     1.0000   1.0000   1.0000   1.0000   1.0000   1.0000   1.0000   1.0000
     1.0000   1.0000   1.0000   1.0000   1.0000   1.0000   1.0000   1.0000
     1.0000   1.0000   1.0000   1.0000   1.0000   1.0000   1.0000   1.0000
     1.0000   1.0000   1.0000   1.0000   1.0000   1.0000   1.0000   1.0000
     1.0000   1.0000   1.0000   1.0000   1.0000   1.0000   1.0000   1.0000
     1.0000   1.0000   1.0000   1.0000   1.0000   1.0000   1.0000   1.0000
     1.0000   1.0000   1.0000   1.0000   1.0000   1.0000   1.0000   1.0000
     1.0000   1.0000   1.0000   1.0000   1.0000   1.0000   1.0000   1.0000

          k = 0.0000 0.2547 0.2579 ( 23201 PWs)   bands (ev):

   -35.7641 -35.7639 -35.7590 -35.7587 -35.6739 -35.6738 -35.6689 -35.6688
   -29.0296 -29.0283 -29.0232 -29.0219 -16.3201 -16.3122 -16.2614 -16.2429
   -16.2422 -16.2347 -16.2294 -16.2165 -16.2041 -16.1557 -16.1403 -16.1311
   -16.0714 -16.0297 -16.0231 -16.0190 -16.0164 -16.0085 -15.9935 -15.9883
   -15.9417 -15.9390 -15.9231 -15.9164 -15.9095 -15.8806 -15.8740 -15.8556
   -10.8832 -10.8530 -10.8323 -10.8237 -10.8190 -10.8119 -10.7942 -10.7879
   -10.7705 -10.7650 -10.6689 -10.6634  -7.2829  -7.2664  -7.1583  -7.1379
    -7.0996  -7.0771  -6.9587  -6.9477  -6.8932  -6.8610  -6.8127  -6.7986
    -6.3792  -6.3729  -6.3324  -6.3097  -6.3012  -6.2993  -6.2364  -6.1961
    -6.0939  -6.0849  -6.0439  -6.0366  -1.6725  -1.5295  -1.4488  -1.4035
    -1.3803  -1.2857  -1.2674  -1.2564  -1.2453  -1.2324  -1.2092  -1.0775
     5.0543   5.0620   5.1224   5.2302   5.2585   5.2635   5.3345   5.4050
     5.4164   5.4569   5.4631   5.5525   5.5651   5.6280   5.7207   5.7396
     5.8835   6.0252   6.0841   6.1068   6.1677   6.2315   6.3099   6.3921
     6.4097   6.5271   6.6068   6.7044   6.7368   6.8140   6.8174   6.8762
     6.8896   6.9297   6.9454   6.9801   7.1279   7.1791   7.2115   7.3234
     7.3532   7.3806   7.4700   7.5063   7.5480   7.6487   7.6579   7.6720
     7.6826   7.7165   7.7481   7.7784   7.8483   7.8497   7.8878   7.9263
     7.9531   7.9928   8.0282   8.0600   8.1206   8.1709   8.1990   8.3358
     8.3527   8.4138   8.4161   8.4509   8.4649   8.5332   8.6147   8.6152

     occupation numbers 
     1.0000   1.0000   1.0000   1.0000   1.0000   1.0000   1.0000   1.0000
     1.0000   1.0000   1.0000   1.0000   1.0000   1.0000   1.0000   1.0000
     1.0000   1.0000   1.0000   1.0000   1.0000   1.0000   1.0000   1.0000
     1.0000   1.0000   1.0000   1.0000   1.0000   1.0000   1.0000   1.0000
     1.0000   1.0000   1.0000   1.0000   1.0000   1.0000   1.0000   1.0000
     1.0000   1.0000   1.0000   1.0000   1.0000   1.0000   1.0000   1.0000
     1.0000   1.0000   1.0000   1.0000   1.0000   1.0000   1.0000   1.0000
     1.0000   1.0000   1.0000   1.0000   1.0000   1.0000   1.0000   1.0000
     1.0000   1.0000   1.0000   1.0000   1.0000   1.0000   1.0000   1.0000
     1.0000   1.0000   1.0000   1.0000   1.0000   1.0000   1.0000   1.0000
     1.0000   1.0000   1.0000   1.0000   1.0000   1.0000   1.0000   1.0000
     1.0000   1.0000   1.0000   1.0000   1.0000   1.0000   1.0000   1.0000
     1.0000   1.0000   1.0000   1.0000   1.0000   1.0000   1.0000   1.0000
     1.0000   1.0000   1.0000   1.0000   1.0000   1.0000   1.0000   1.0000
     1.0000   1.0000   1.0000   1.0000   1.0000   1.0000   1.0000   1.0000
     1.0000   1.0000   1.0000   1.0000   1.0000   1.0000   1.0000   1.0000
     1.0000   1.0000   1.0000   1.0000   1.0000   1.0000   1.0000   1.0000
     1.0000   1.0000   1.0000   1.0000   1.0000   1.0000   1.0000   1.0000
     1.0000   1.0000   1.0000   1.0000   1.0000   1.0000   1.0000   1.0000
     1.0000   1.0000   1.0000   1.0000   1.0000   1.0000   1.0000   1.0000

          k = 0.0000 0.2547-0.5158 ( 23210 PWs)   bands (ev):

   -35.7629 -35.7627 -35.7601 -35.7599 -35.6719 -35.6717 -35.6710 -35.6708
   -29.0296 -29.0284 -29.0232 -29.0219 -16.3161 -16.2519 -16.2465 -16.2430
   -16.2387 -16.2384 -16.1780 -16.1739 -16.1486 -16.1477 -16.1464 -16.1069
   -16.1021 -16.0950 -16.0725 -16.0683 -16.0344 -16.0254 -16.0221 -16.0193
   -15.9392 -15.9358 -15.9269 -15.9211 -15.9088 -15.8769 -15.8606 -15.8543
   -10.8818 -10.8523 -10.8310 -10.8236 -10.8181 -10.8118 -10.7941 -10.7876
   -10.7701 -10.7647 -10.6687 -10.6632  -7.3017  -7.1707  -7.1082  -7.0811
    -7.0671  -6.9095  -6.8850  -6.8646  -6.8178  -6.7661  -6.6231  -6.6003
    -6.5672  -6.5667  -6.5607  -6.5350  -6.3909  -6.3445  -6.3434  -6.2927
    -6.0967  -6.0866  -6.0486  -6.0354  -1.6716  -1.5311  -1.4492  -1.4038
    -1.3804  -1.2869  -1.2678  -1.2571  -1.2452  -1.2323  -1.2102  -1.0786
     5.1341   5.1516   5.1797   5.2407   5.3326   5.3409   5.3783   5.4637
     5.5686   5.5788   5.6219   5.6648   5.6991   5.7346   5.7432   6.0053
     6.0221   6.0779   6.0798   6.1515   6.1624   6.2462   6.2678   6.2837
     6.3179   6.4413   6.5019   6.5598   6.5923   6.7343   6.7567   6.7669
     6.8094   6.9008   6.9156   6.9547   7.0879   7.0898   7.1536   7.2607
     7.3788   7.4014   7.4089   7.4503   7.4723   7.4957   7.5250   7.6015
     7.6103   7.6491   7.6998   7.7350   7.8257   7.9154   7.9517   7.9584
     8.0453   8.0553   8.0918   8.1355   8.1823   8.1862   8.2027   8.2721
     8.2802   8.3620   8.3622   8.3694   8.4344   8.4776   8.5678   8.5718

     occupation numbers 
     1.0000   1.0000   1.0000   1.0000   1.0000   1.0000   1.0000   1.0000
     1.0000   1.0000   1.0000   1.0000   1.0000   1.0000   1.0000   1.0000
     1.0000   1.0000   1.0000   1.0000   1.0000   1.0000   1.0000   1.0000
     1.0000   1.0000   1.0000   1.0000   1.0000   1.0000   1.0000   1.0000
     1.0000   1.0000   1.0000   1.0000   1.0000   1.0000   1.0000   1.0000
     1.0000   1.0000   1.0000   1.0000   1.0000   1.0000   1.0000   1.0000
     1.0000   1.0000   1.0000   1.0000   1.0000   1.0000   1.0000   1.0000
     1.0000   1.0000   1.0000   1.0000   1.0000   1.0000   1.0000   1.0000
     1.0000   1.0000   1.0000   1.0000   1.0000   1.0000   1.0000   1.0000
     1.0000   1.0000   1.0000   1.0000   1.0000   1.0000   1.0000   1.0000
     1.0000   1.0000   1.0000   1.0000   1.0000   1.0000   1.0000   1.0000
     1.0000   1.0000   1.0000   1.0000   1.0000   1.0000   1.0000   1.0000
     1.0000   1.0000   1.0000   1.0000   1.0000   1.0000   1.0000   1.0000
     1.0000   1.0000   1.0000   1.0000   1.0000   1.0000   1.0000   1.0000
     1.0000   1.0000   1.0000   1.0000   1.0000   1.0000   1.0000   1.0000
     1.0000   1.0000   1.0000   1.0000   1.0000   1.0000   1.0000   1.0000
     1.0000   1.0000   1.0000   1.0000   1.0000   1.0000   1.0000   1.0000
     1.0000   1.0000   1.0000   1.0000   1.0000   1.0000   1.0000   1.0000
     1.0000   1.0000   1.0000   1.0000   1.0000   1.0000   1.0000   1.0000
     1.0000   1.0000   1.0000   1.0000   1.0000   1.0000   1.0000   1.0000

          k = 0.0000 0.2547-0.2579 ( 23201 PWs)   bands (ev):

   -35.7641 -35.7639 -35.7590 -35.7587 -35.6739 -35.6738 -35.6689 -35.6688
   -29.0296 -29.0283 -29.0232 -29.0219 -16.3201 -16.3122 -16.2614 -16.2429
   -16.2422 -16.2347 -16.2294 -16.2165 -16.2041 -16.1557 -16.1403 -16.1311
   -16.0714 -16.0297 -16.0231 -16.0190 -16.0164 -16.0085 -15.9935 -15.9883
   -15.9417 -15.9390 -15.9231 -15.9164 -15.9095 -15.8806 -15.8740 -15.8556
   -10.8832 -10.8530 -10.8323 -10.8237 -10.8190 -10.8119 -10.7942 -10.7879
   -10.7705 -10.7650 -10.6689 -10.6634  -7.2829  -7.2664  -7.1583  -7.1378
    -7.0996  -7.0771  -6.9587  -6.9477  -6.8932  -6.8610  -6.8127  -6.7986
    -6.3792  -6.3729  -6.3324  -6.3097  -6.3012  -6.2993  -6.2364  -6.1961
    -6.0939  -6.0849  -6.0439  -6.0366  -1.6725  -1.5295  -1.4488  -1.4035
    -1.3803  -1.2857  -1.2674  -1.2564  -1.2453  -1.2324  -1.2092  -1.0775
     5.0543   5.0620   5.1224   5.2302   5.2585   5.2635   5.3345   5.4050
     5.4164   5.4569   5.4630   5.5524   5.5651   5.6280   5.7207   5.7397
     5.8836   6.0252   6.0840   6.1068   6.1676   6.2314   6.3099   6.3921
     6.4099   6.5271   6.6067   6.7044   6.7367   6.8140   6.8174   6.8762
     6.8896   6.9297   6.9454   6.9802   7.1279   7.1791   7.2114   7.3234
     7.3532   7.3804   7.4700   7.5064   7.5480   7.6487   7.6579   7.6720
     7.6826   7.7164   7.7482   7.7785   7.8483   7.8497   7.8878   7.9263
     7.9531   7.9929   8.0281   8.0600   8.1205   8.1708   8.1990   8.3358
     8.3528   8.4139   8.4161   8.4511   8.4648   8.5333   8.6147   8.6152

     occupation numbers 
     1.0000   1.0000   1.0000   1.0000   1.0000   1.0000   1.0000   1.0000
     1.0000   1.0000   1.0000   1.0000   1.0000   1.0000   1.0000   1.0000
     1.0000   1.0000   1.0000   1.0000   1.0000   1.0000   1.0000   1.0000
     1.0000   1.0000   1.0000   1.0000   1.0000   1.0000   1.0000   1.0000
     1.0000   1.0000   1.0000   1.0000   1.0000   1.0000   1.0000   1.0000
     1.0000   1.0000   1.0000   1.0000   1.0000   1.0000   1.0000   1.0000
     1.0000   1.0000   1.0000   1.0000   1.0000   1.0000   1.0000   1.0000
     1.0000   1.0000   1.0000   1.0000   1.0000   1.0000   1.0000   1.0000
     1.0000   1.0000   1.0000   1.0000   1.0000   1.0000   1.0000   1.0000
     1.0000   1.0000   1.0000   1.0000   1.0000   1.0000   1.0000   1.0000
     1.0000   1.0000   1.0000   1.0000   1.0000   1.0000   1.0000   1.0000
     1.0000   1.0000   1.0000   1.0000   1.0000   1.0000   1.0000   1.0000
     1.0000   1.0000   1.0000   1.0000   1.0000   1.0000   1.0000   1.0000
     1.0000   1.0000   1.0000   1.0000   1.0000   1.0000   1.0000   1.0000
     1.0000   1.0000   1.0000   1.0000   1.0000   1.0000   1.0000   1.0000
     1.0000   1.0000   1.0000   1.0000   1.0000   1.0000   1.0000   1.0000
     1.0000   1.0000   1.0000   1.0000   1.0000   1.0000   1.0000   1.0000
     1.0000   1.0000   1.0000   1.0000   1.0000   1.0000   1.0000   1.0000
     1.0000   1.0000   1.0000   1.0000   1.0000   1.0000   1.0000   1.0000
     1.0000   1.0000   1.0000   1.0000   1.0000   1.0000   1.0000   1.0000

          k = 0.0000-0.5093 0.0000 ( 23216 PWs)   bands (ev):

   -35.7647 -35.7647 -35.7580 -35.7580 -35.6749 -35.6749 -35.6679 -35.6679
   -29.0288 -29.0287 -29.0228 -29.0227 -16.3276 -16.3276 -16.2602 -16.2601
   -16.2027 -16.2027 -16.1961 -16.1961 -16.1702 -16.1702 -16.1343 -16.1343
   -16.1187 -16.1187 -16.0912 -16.0912 -15.9664 -15.9664 -15.9490 -15.9490
   -15.9441 -15.9441 -15.9100 -15.9100 -15.8929 -15.8929 -15.8771 -15.8771
   -10.8688 -10.8687 -10.8167 -10.8166 -10.8135 -10.8134 -10.7727 -10.7726
   -10.7697 -10.7696 -10.6980 -10.6979  -7.3333  -7.3333  -7.1141  -7.1141
    -6.9427  -6.9427  -6.8994  -6.8993  -6.7486  -6.7486  -6.7200  -6.7200
    -6.7089  -6.7088  -6.6837  -6.6837  -6.1307  -6.1307  -6.0988  -6.0988
    -6.0673  -6.0673  -6.0458  -6.0458  -1.5484  -1.5484  -1.4948  -1.4947
    -1.3253  -1.3253  -1.2552  -1.2552  -1.2313  -1.2312  -1.1500  -1.1499
     5.0346   5.0346   5.1202   5.1202   5.2724   5.2725   5.3873   5.3873
     5.4764   5.4764   5.4809   5.4810   5.6448   5.6449   5.8837   5.8837
     5.8985   5.8987   6.0680   6.0680   6.1472   6.1472   6.4496   6.4497
     6.5746   6.5747   6.6721   6.6722   6.8182   6.8182   6.8596   6.8597
     6.9361   6.9361   6.9669   6.9672   7.1313   7.1313   7.2466   7.2466
     7.3566   7.3567   7.3588   7.3588   7.3882   7.3882   7.5205   7.5206
     7.6066   7.6067   7.6987   7.6987   7.7542   7.7543   8.1279   8.1279
     8.1699   8.1700   8.2157   8.2157   8.2428   8.2429   8.2875   8.2875
     8.3389   8.3389   8.3495   8.3495   8.4137   8.4138   8.5264   8.5266

     occupation numbers 
     1.0000   1.0000   1.0000   1.0000   1.0000   1.0000   1.0000   1.0000
     1.0000   1.0000   1.0000   1.0000   1.0000   1.0000   1.0000   1.0000
     1.0000   1.0000   1.0000   1.0000   1.0000   1.0000   1.0000   1.0000
     1.0000   1.0000   1.0000   1.0000   1.0000   1.0000   1.0000   1.0000
     1.0000   1.0000   1.0000   1.0000   1.0000   1.0000   1.0000   1.0000
     1.0000   1.0000   1.0000   1.0000   1.0000   1.0000   1.0000   1.0000
     1.0000   1.0000   1.0000   1.0000   1.0000   1.0000   1.0000   1.0000
     1.0000   1.0000   1.0000   1.0000   1.0000   1.0000   1.0000   1.0000
     1.0000   1.0000   1.0000   1.0000   1.0000   1.0000   1.0000   1.0000
     1.0000   1.0000   1.0000   1.0000   1.0000   1.0000   1.0000   1.0000
     1.0000   1.0000   1.0000   1.0000   1.0000   1.0000   1.0000   1.0000
     1.0000   1.0000   1.0000   1.0000   1.0000   1.0000   1.0000   1.0000
     1.0000   1.0000   1.0000   1.0000   1.0000   1.0000   1.0000   1.0000
     1.0000   1.0000   1.0000   1.0000   1.0000   1.0000   1.0000   1.0000
     1.0000   1.0000   1.0000   1.0000   1.0000   1.0000   1.0000   1.0000
     1.0000   1.0000   1.0000   1.0000   1.0000   1.0000   1.0000   1.0000
     1.0000   1.0000   1.0000   1.0000   1.0000   1.0000   1.0000   1.0000
     1.0000   1.0000   1.0000   1.0000   1.0000   1.0000   1.0000   1.0000
     1.0000   1.0000   1.0000   1.0000   1.0000   1.0000   1.0000   1.0000
     1.0000   1.0000   1.0000   1.0000   1.0000   1.0000   1.0000   1.0000

          k = 0.0000-0.5093 0.2579 ( 23190 PWs)   bands (ev):

   -35.7639 -35.7639 -35.7588 -35.7588 -35.6739 -35.6739 -35.6689 -35.6689
   -29.0288 -29.0287 -29.0228 -29.0227 -16.2927 -16.2927 -16.2332 -16.2332
   -16.1959 -16.1958 -16.1894 -16.1894 -16.1702 -16.1702 -16.1349 -16.1349
   -16.1173 -16.1172 -16.0930 -16.0930 -16.0229 -16.0229 -15.9911 -15.9911
   -15.9411 -15.9411 -15.9195 -15.9195 -15.8786 -15.8786 -15.8699 -15.8699
   -10.8678 -10.8677 -10.8161 -10.8160 -10.8134 -10.8132 -10.7724 -10.7723
   -10.7696 -10.7695 -10.6974 -10.6973  -7.1963  -7.1962  -7.0264  -7.0264
    -6.9643  -6.9642  -6.8467  -6.8466  -6.7368  -6.7368  -6.7237  -6.7237
    -6.6966  -6.6966  -6.6819  -6.6819  -6.3015  -6.3015  -6.2172  -6.2172
    -6.0916  -6.0916  -6.0527  -6.0526  -1.5482  -1.5481  -1.4958  -1.4957
    -1.3253  -1.3253  -1.2561  -1.2560  -1.2316  -1.2315  -1.1503  -1.1502
     5.1082   5.1083   5.3161   5.3162   5.4194   5.4194   5.4862   5.4863
     5.5296   5.5296   5.5756   5.5757   5.6551   5.6552   5.8560   5.8560
     6.0266   6.0267   6.1082   6.1082   6.1513   6.1513   6.3518   6.3519
     6.4887   6.4888   6.5468   6.5469   6.6211   6.6212   6.7359   6.7360
     6.8117   6.8118   6.9725   6.9726   7.0528   7.0529   7.1299   7.1301
     7.3665   7.3665   7.4251   7.4252   7.5194   7.5195   7.6042   7.6043
     7.7207   7.7207   7.7632   7.7633   7.7932   7.7933   7.9620   7.9622
     8.0354   8.0355   8.1716   8.1717   8.1903   8.1903   8.2383   8.2384
     8.2760   8.2760   8.3240   8.3240   8.4453   8.4454   8.5312   8.5314

     occupation numbers 
     1.0000   1.0000   1.0000   1.0000   1.0000   1.0000   1.0000   1.0000
     1.0000   1.0000   1.0000   1.0000   1.0000   1.0000   1.0000   1.0000
     1.0000   1.0000   1.0000   1.0000   1.0000   1.0000   1.0000   1.0000
     1.0000   1.0000   1.0000   1.0000   1.0000   1.0000   1.0000   1.0000
     1.0000   1.0000   1.0000   1.0000   1.0000   1.0000   1.0000   1.0000
     1.0000   1.0000   1.0000   1.0000   1.0000   1.0000   1.0000   1.0000
     1.0000   1.0000   1.0000   1.0000   1.0000   1.0000   1.0000   1.0000
     1.0000   1.0000   1.0000   1.0000   1.0000   1.0000   1.0000   1.0000
     1.0000   1.0000   1.0000   1.0000   1.0000   1.0000   1.0000   1.0000
     1.0000   1.0000   1.0000   1.0000   1.0000   1.0000   1.0000   1.0000
     1.0000   1.0000   1.0000   1.0000   1.0000   1.0000   1.0000   1.0000
     1.0000   1.0000   1.0000   1.0000   1.0000   1.0000   1.0000   1.0000
     1.0000   1.0000   1.0000   1.0000   1.0000   1.0000   1.0000   1.0000
     1.0000   1.0000   1.0000   1.0000   1.0000   1.0000   1.0000   1.0000
     1.0000   1.0000   1.0000   1.0000   1.0000   1.0000   1.0000   1.0000
     1.0000   1.0000   1.0000   1.0000   1.0000   1.0000   1.0000   1.0000
     1.0000   1.0000   1.0000   1.0000   1.0000   1.0000   1.0000   1.0000
     1.0000   1.0000   1.0000   1.0000   1.0000   1.0000   1.0000   1.0000
     1.0000   1.0000   1.0000   1.0000   1.0000   1.0000   1.0000   1.0000
     1.0000   1.0000   1.0000   1.0000   1.0000   1.0000   1.0000   1.0000

          k = 0.0000-0.5093-0.5158 ( 23264 PWs)   bands (ev):

   -35.7628 -35.7628 -35.7600 -35.7600 -35.6719 -35.6719 -35.6710 -35.6710
   -29.0289 -29.0287 -29.0229 -29.0228 -16.2485 -16.2485 -16.2130 -16.2130
   -16.1838 -16.1838 -16.1648 -16.1648 -16.1471 -16.1471 -16.1416 -16.1416
   -16.1011 -16.1011 -16.0956 -16.0956 -16.0933 -16.0932 -16.0703 -16.0702
   -15.9381 -15.9381 -15.9239 -15.9238 -15.8769 -15.8769 -15.8611 -15.8611
   -10.8669 -10.8667 -10.8156 -10.8154 -10.8132 -10.8130 -10.7721 -10.7720
   -10.7695 -10.7694 -10.6967 -10.6966  -7.0403  -7.0403  -6.9834  -6.9833
    -6.8769  -6.8769  -6.7384  -6.7384  -6.7168  -6.7168  -6.6977  -6.6977
    -6.6764  -6.6764  -6.6092  -6.6091  -6.5505  -6.5505  -6.5436  -6.5435
    -6.0782  -6.0782  -6.0662  -6.0662  -1.5480  -1.5479  -1.4968  -1.4968
    -1.3253  -1.3253  -1.2568  -1.2567  -1.2319  -1.2318  -1.1506  -1.1505
     5.1511   5.1511   5.3550   5.3550   5.5845   5.5846   5.6257   5.6257
     5.6458   5.6458   5.7939   5.7940   5.8260   5.8260   5.9114   5.9117
     5.9896   5.9896   6.1426   6.1428   6.1681   6.1682   6.3111   6.3112
     6.3296   6.3298   6.5413   6.5414   6.5557   6.5558   6.5979   6.5979
     6.7034   6.7035   6.9109   6.9110   6.9437   6.9438   7.0876   7.0877
     7.2144   7.2144   7.3171   7.3172   7.4520   7.4521   7.5705   7.5706
     7.7054   7.7054   7.8438   7.8438   7.8558   7.8558   7.8854   7.8854
     8.0733   8.0734   8.1724   8.1725   8.2204   8.2204   8.2809   8.2810
     8.2939   8.2941   8.3299   8.3300   8.3402   8.3402   8.4589   8.4590

     occupation numbers 
     1.0000   1.0000   1.0000   1.0000   1.0000   1.0000   1.0000   1.0000
     1.0000   1.0000   1.0000   1.0000   1.0000   1.0000   1.0000   1.0000
     1.0000   1.0000   1.0000   1.0000   1.0000   1.0000   1.0000   1.0000
     1.0000   1.0000   1.0000   1.0000   1.0000   1.0000   1.0000   1.0000
     1.0000   1.0000   1.0000   1.0000   1.0000   1.0000   1.0000   1.0000
     1.0000   1.0000   1.0000   1.0000   1.0000   1.0000   1.0000   1.0000
     1.0000   1.0000   1.0000   1.0000   1.0000   1.0000   1.0000   1.0000
     1.0000   1.0000   1.0000   1.0000   1.0000   1.0000   1.0000   1.0000
     1.0000   1.0000   1.0000   1.0000   1.0000   1.0000   1.0000   1.0000
     1.0000   1.0000   1.0000   1.0000   1.0000   1.0000   1.0000   1.0000
     1.0000   1.0000   1.0000   1.0000   1.0000   1.0000   1.0000   1.0000
     1.0000   1.0000   1.0000   1.0000   1.0000   1.0000   1.0000   1.0000
     1.0000   1.0000   1.0000   1.0000   1.0000   1.0000   1.0000   1.0000
     1.0000   1.0000   1.0000   1.0000   1.0000   1.0000   1.0000   1.0000
     1.0000   1.0000   1.0000   1.0000   1.0000   1.0000   1.0000   1.0000
     1.0000   1.0000   1.0000   1.0000   1.0000   1.0000   1.0000   1.0000
     1.0000   1.0000   1.0000   1.0000   1.0000   1.0000   1.0000   1.0000
     1.0000   1.0000   1.0000   1.0000   1.0000   1.0000   1.0000   1.0000
     1.0000   1.0000   1.0000   1.0000   1.0000   1.0000   1.0000   1.0000
     1.0000   1.0000   1.0000   1.0000   1.0000   1.0000   1.0000   1.0000

          k = 0.2500 0.0000 0.0000 ( 23234 PWs)   bands (ev):

   -35.7649 -35.7647 -35.7582 -35.7580 -35.6749 -35.6748 -35.6679 -35.6677
   -29.0298 -29.0286 -29.0230 -29.0217 -16.3522 -16.3437 -16.3019 -16.2926
   -16.2782 -16.2718 -16.2558 -16.2487 -16.2028 -16.1170 -16.1158 -16.1032
   -16.0090 -15.9885 -15.9876 -15.9795 -15.9756 -15.9719 -15.9690 -15.9675
   -15.9596 -15.9557 -15.9257 -15.9257 -15.9220 -15.8926 -15.8852 -15.8537
   -10.8845 -10.8525 -10.8376 -10.8321 -10.8266 -10.8179 -10.8084 -10.8007
   -10.7658 -10.7621 -10.6458 -10.6433  -7.4086  -7.3646  -7.2803  -7.2734
    -7.2469  -7.2468  -7.0770  -7.0568  -6.7817  -6.7745  -6.7681  -6.7643
    -6.2463  -6.2241  -6.1997  -6.1863  -6.1836  -6.1730  -6.1556  -6.1474
    -6.1102  -6.1058  -6.0595  -6.0250  -1.6649  -1.5216  -1.4375  -1.3600
    -1.3567  -1.2996  -1.2853  -1.2834  -1.2785  -1.2149  -1.2148  -1.1008
     4.9232   4.9334   5.0159   5.0334   5.0410   5.1406   5.1536   5.2130
     5.2293   5.3327   5.3332   5.4944   5.5524   5.5902   5.7594   5.8710
     6.0112   6.0314   6.1187   6.2968   6.3284   6.4170   6.4832   6.5247
     6.5369   6.5403   6.7270   6.7404   6.7509   6.7775   6.8069   6.8340
     6.9137   6.9813   6.9966   7.0258   7.0559   7.1269   7.1606   7.1759
     7.2761   7.3349   7.3394   7.4495   7.4685   7.5499   7.6275   7.6901
     7.7008   7.7472   7.7610   7.8093   7.8630   7.8976   7.9020   7.9848
     8.0222   8.0510   8.1315   8.1567   8.2259   8.2625   8.3443   8.3668
     8.4304   8.4357   8.4384   8.4575   8.5118   8.5811   8.6533   8.6683

     occupation numbers 
     1.0000   1.0000   1.0000   1.0000   1.0000   1.0000   1.0000   1.0000
     1.0000   1.0000   1.0000   1.0000   1.0000   1.0000   1.0000   1.0000
     1.0000   1.0000   1.0000   1.0000   1.0000   1.0000   1.0000   1.0000
     1.0000   1.0000   1.0000   1.0000   1.0000   1.0000   1.0000   1.0000
     1.0000   1.0000   1.0000   1.0000   1.0000   1.0000   1.0000   1.0000
     1.0000   1.0000   1.0000   1.0000   1.0000   1.0000   1.0000   1.0000
     1.0000   1.0000   1.0000   1.0000   1.0000   1.0000   1.0000   1.0000
     1.0000   1.0000   1.0000   1.0000   1.0000   1.0000   1.0000   1.0000
     1.0000   1.0000   1.0000   1.0000   1.0000   1.0000   1.0000   1.0000
     1.0000   1.0000   1.0000   1.0000   1.0000   1.0000   1.0000   1.0000
     1.0000   1.0000   1.0000   1.0000   1.0000   1.0000   1.0000   1.0000
     1.0000   1.0000   1.0000   1.0000   1.0000   1.0000   1.0000   1.0000
     1.0000   1.0000   1.0000   1.0000   1.0000   1.0000   1.0000   1.0000
     1.0000   1.0000   1.0000   1.0000   1.0000   1.0000   1.0000   1.0000
     1.0000   1.0000   1.0000   1.0000   1.0000   1.0000   1.0000   1.0000
     1.0000   1.0000   1.0000   1.0000   1.0000   1.0000   1.0000   1.0000
     1.0000   1.0000   1.0000   1.0000   1.0000   1.0000   1.0000   1.0000
     1.0000   1.0000   1.0000   1.0000   1.0000   1.0000   1.0000   1.0000
     1.0000   1.0000   1.0000   1.0000   1.0000   1.0000   1.0000   1.0000
     1.0000   1.0000   1.0000   1.0000   1.0000   1.0000   1.0000   1.0000

          k = 0.2500 0.0000 0.2579 ( 23228 PWs)   bands (ev):

   -35.7641 -35.7639 -35.7590 -35.7588 -35.6739 -35.6738 -35.6689 -35.6688
   -29.0298 -29.0286 -29.0230 -29.0217 -16.3431 -16.3129 -16.2906 -16.2792
   -16.2743 -16.2739 -16.2197 -16.2135 -16.1911 -16.1170 -16.1160 -16.1052
   -16.0523 -16.0052 -16.0004 -15.9902 -15.9864 -15.9859 -15.9826 -15.9774
   -15.9741 -15.9628 -15.9484 -15.9398 -15.9255 -15.8921 -15.8630 -15.8482
   -10.8831 -10.8516 -10.8364 -10.8310 -10.8265 -10.8177 -10.8079 -10.8007
   -10.7655 -10.7618 -10.6458 -10.6433  -7.3734  -7.3381  -7.2570  -7.2462
    -7.1962  -7.1242  -6.9683  -6.9490  -6.7747  -6.7729  -6.7465  -6.7428
    -6.3208  -6.3109  -6.2539  -6.2450  -6.2119  -6.1937  -6.1697  -6.1681
    -6.1625  -6.1456  -6.1451  -6.1279  -1.6636  -1.5229  -1.4372  -1.3593
    -1.3574  -1.3006  -1.2866  -1.2834  -1.2794  -1.2160  -1.2149  -1.1024
     4.9961   5.0117   5.0353   5.0372   5.1295   5.1773   5.3059   5.3637
     5.4680   5.4695   5.5411   5.5415   5.6134   5.6931   5.8316   5.8402
     5.9629   5.9661   6.0676   6.3165   6.3190   6.3345   6.3714   6.3984
     6.5152   6.5508   6.5978   6.6575   6.6828   6.7234   6.7782   6.8212
     6.8724   6.8828   6.9521   6.9738   7.0435   7.0861   7.1498   7.1769
     7.2711   7.3467   7.3888   7.5085   7.5206   7.6041   7.6168   7.6501
     7.7565   7.7732   7.7984   7.8385   7.8693   7.8762   7.9063   7.9151
     7.9960   8.0400   8.0772   8.0869   8.1781   8.1848   8.2672   8.2953
     8.3016   8.3212   8.4195   8.4813   8.4856   8.4975   8.6141   8.6527

     occupation numbers 
     1.0000   1.0000   1.0000   1.0000   1.0000   1.0000   1.0000   1.0000
     1.0000   1.0000   1.0000   1.0000   1.0000   1.0000   1.0000   1.0000
     1.0000   1.0000   1.0000   1.0000   1.0000   1.0000   1.0000   1.0000
     1.0000   1.0000   1.0000   1.0000   1.0000   1.0000   1.0000   1.0000
     1.0000   1.0000   1.0000   1.0000   1.0000   1.0000   1.0000   1.0000
     1.0000   1.0000   1.0000   1.0000   1.0000   1.0000   1.0000   1.0000
     1.0000   1.0000   1.0000   1.0000   1.0000   1.0000   1.0000   1.0000
     1.0000   1.0000   1.0000   1.0000   1.0000   1.0000   1.0000   1.0000
     1.0000   1.0000   1.0000   1.0000   1.0000   1.0000   1.0000   1.0000
     1.0000   1.0000   1.0000   1.0000   1.0000   1.0000   1.0000   1.0000
     1.0000   1.0000   1.0000   1.0000   1.0000   1.0000   1.0000   1.0000
     1.0000   1.0000   1.0000   1.0000   1.0000   1.0000   1.0000   1.0000
     1.0000   1.0000   1.0000   1.0000   1.0000   1.0000   1.0000   1.0000
     1.0000   1.0000   1.0000   1.0000   1.0000   1.0000   1.0000   1.0000
     1.0000   1.0000   1.0000   1.0000   1.0000   1.0000   1.0000   1.0000
     1.0000   1.0000   1.0000   1.0000   1.0000   1.0000   1.0000   1.0000
     1.0000   1.0000   1.0000   1.0000   1.0000   1.0000   1.0000   1.0000
     1.0000   1.0000   1.0000   1.0000   1.0000   1.0000   1.0000   1.0000
     1.0000   1.0000   1.0000   1.0000   1.0000   1.0000   1.0000   1.0000
     1.0000   1.0000   1.0000   1.0000   1.0000   1.0000   1.0000   1.0000

          k = 0.2500 0.0000-0.5158 ( 23234 PWs)   bands (ev):

   -35.7630 -35.7628 -35.7601 -35.7599 -35.6719 -35.6717 -35.6710 -35.6708
   -29.0298 -29.0286 -29.0230 -29.0218 -16.3424 -16.2880 -16.2802 -16.2767
   -16.2493 -16.2459 -16.1655 -16.1611 -16.1494 -16.1458 -16.1006 -16.0930
   -16.0908 -16.0815 -16.0703 -16.0667 -15.9832 -15.9821 -15.9817 -15.9812
   -15.9774 -15.9595 -15.9564 -15.9481 -15.9253 -15.8917 -15.8511 -15.8446
   -10.8817 -10.8508 -10.8351 -10.8299 -10.8265 -10.8176 -10.8075 -10.8007
   -10.7652 -10.7615 -10.6458 -10.6433  -7.3942  -7.2952  -7.2729  -7.2199
    -7.0504  -6.8608  -6.8410  -6.7804  -6.7456  -6.7424  -6.6240  -6.6159
    -6.5588  -6.5517  -6.5407  -6.5249  -6.2258  -6.2046  -6.1946  -6.1801
    -6.1771  -6.1548  -6.1401  -6.1326  -1.6622  -1.5243  -1.4370  -1.3586
    -1.3580  -1.3014  -1.2877  -1.2833  -1.2804  -1.2172  -1.2149  -1.1040
     5.0222   5.0369   5.0369   5.0371   5.3388   5.3527   5.3761   5.4874
     5.5316   5.5946   5.6418   5.6749   5.7419   5.8650   5.9352   5.9353
     6.0221   6.1052   6.1468   6.1587   6.1685   6.2765   6.2773   6.4180
     6.4777   6.4814   6.5461   6.5741   6.5766   6.7706   6.7737   6.8097
     6.8298   6.8699   6.9028   6.9789   7.0641   7.1043   7.1271   7.1712
     7.1890   7.2066   7.2117   7.3249   7.3526   7.4099   7.4823   7.5978
     7.6260   7.7590   7.8018   7.8058   7.8484   7.8529   8.0673   8.0836
     8.0838   8.1189   8.1284   8.1335   8.1623   8.1673   8.1838   8.2056
     8.2443   8.2553   8.3921   8.4272   8.4929   8.5271   8.5287   8.5708

     occupation numbers 
     1.0000   1.0000   1.0000   1.0000   1.0000   1.0000   1.0000   1.0000
     1.0000   1.0000   1.0000   1.0000   1.0000   1.0000   1.0000   1.0000
     1.0000   1.0000   1.0000   1.0000   1.0000   1.0000   1.0000   1.0000
     1.0000   1.0000   1.0000   1.0000   1.0000   1.0000   1.0000   1.0000
     1.0000   1.0000   1.0000   1.0000   1.0000   1.0000   1.0000   1.0000
     1.0000   1.0000   1.0000   1.0000   1.0000   1.0000   1.0000   1.0000
     1.0000   1.0000   1.0000   1.0000   1.0000   1.0000   1.0000   1.0000
     1.0000   1.0000   1.0000   1.0000   1.0000   1.0000   1.0000   1.0000
     1.0000   1.0000   1.0000   1.0000   1.0000   1.0000   1.0000   1.0000
     1.0000   1.0000   1.0000   1.0000   1.0000   1.0000   1.0000   1.0000
     1.0000   1.0000   1.0000   1.0000   1.0000   1.0000   1.0000   1.0000
     1.0000   1.0000   1.0000   1.0000   1.0000   1.0000   1.0000   1.0000
     1.0000   1.0000   1.0000   1.0000   1.0000   1.0000   1.0000   1.0000
     1.0000   1.0000   1.0000   1.0000   1.0000   1.0000   1.0000   1.0000
     1.0000   1.0000   1.0000   1.0000   1.0000   1.0000   1.0000   1.0000
     1.0000   1.0000   1.0000   1.0000   1.0000   1.0000   1.0000   1.0000
     1.0000   1.0000   1.0000   1.0000   1.0000   1.0000   1.0000   1.0000
     1.0000   1.0000   1.0000   1.0000   1.0000   1.0000   1.0000   1.0000
     1.0000   1.0000   1.0000   1.0000   1.0000   1.0000   1.0000   1.0000
     1.0000   1.0000   1.0000   1.0000   1.0000   1.0000   1.0000   1.0000

          k = 0.2500 0.0000-0.2579 ( 23228 PWs)   bands (ev):

   -35.7641 -35.7639 -35.7590 -35.7588 -35.6739 -35.6738 -35.6689 -35.6688
   -29.0298 -29.0286 -29.0230 -29.0217 -16.3431 -16.3128 -16.2906 -16.2792
   -16.2744 -16.2739 -16.2197 -16.2135 -16.1911 -16.1170 -16.1160 -16.1052
   -16.0523 -16.0052 -16.0004 -15.9902 -15.9864 -15.9859 -15.9826 -15.9774
   -15.9741 -15.9628 -15.9485 -15.9398 -15.9255 -15.8921 -15.8630 -15.8482
   -10.8831 -10.8516 -10.8364 -10.8310 -10.8265 -10.8177 -10.8079 -10.8007
   -10.7655 -10.7618 -10.6458 -10.6433  -7.3734  -7.3381  -7.2571  -7.2461
    -7.1962  -7.1242  -6.9683  -6.9489  -6.7748  -6.7731  -6.7464  -6.7427
    -6.3208  -6.3109  -6.2539  -6.2450  -6.2119  -6.1937  -6.1697  -6.1681
    -6.1625  -6.1456  -6.1451  -6.1279  -1.6636  -1.5229  -1.4372  -1.3593
    -1.3574  -1.3006  -1.2866  -1.2834  -1.2794  -1.2160  -1.2149  -1.1024
     4.9961   5.0117   5.0353   5.0373   5.1296   5.1774   5.3059   5.3638
     5.4678   5.4694   5.5410   5.5415   5.6132   5.6933   5.8314   5.8403
     5.9630   5.9661   6.0677   6.3164   6.3192   6.3347   6.3713   6.3984
     6.5151   6.5507   6.5977   6.6577   6.6829   6.7234   6.7779   6.8212
     6.8723   6.8827   6.9522   6.9738   7.0435   7.0863   7.1498   7.1769
     7.2711   7.3467   7.3889   7.5085   7.5206   7.6041   7.6168   7.6502
     7.7565   7.7732   7.7982   7.8385   7.8693   7.8764   7.9062   7.9152
     7.9958   8.0402   8.0772   8.0869   8.1782   8.1848   8.2671   8.2950
     8.3015   8.3211   8.4195   8.4813   8.4855   8.4976   8.6141   8.6527

     occupation numbers 
     1.0000   1.0000   1.0000   1.0000   1.0000   1.0000   1.0000   1.0000
     1.0000   1.0000   1.0000   1.0000   1.0000   1.0000   1.0000   1.0000
     1.0000   1.0000   1.0000   1.0000   1.0000   1.0000   1.0000   1.0000
     1.0000   1.0000   1.0000   1.0000   1.0000   1.0000   1.0000   1.0000
     1.0000   1.0000   1.0000   1.0000   1.0000   1.0000   1.0000   1.0000
     1.0000   1.0000   1.0000   1.0000   1.0000   1.0000   1.0000   1.0000
     1.0000   1.0000   1.0000   1.0000   1.0000   1.0000   1.0000   1.0000
     1.0000   1.0000   1.0000   1.0000   1.0000   1.0000   1.0000   1.0000
     1.0000   1.0000   1.0000   1.0000   1.0000   1.0000   1.0000   1.0000
     1.0000   1.0000   1.0000   1.0000   1.0000   1.0000   1.0000   1.0000
     1.0000   1.0000   1.0000   1.0000   1.0000   1.0000   1.0000   1.0000
     1.0000   1.0000   1.0000   1.0000   1.0000   1.0000   1.0000   1.0000
     1.0000   1.0000   1.0000   1.0000   1.0000   1.0000   1.0000   1.0000
     1.0000   1.0000   1.0000   1.0000   1.0000   1.0000   1.0000   1.0000
     1.0000   1.0000   1.0000   1.0000   1.0000   1.0000   1.0000   1.0000
     1.0000   1.0000   1.0000   1.0000   1.0000   1.0000   1.0000   1.0000
     1.0000   1.0000   1.0000   1.0000   1.0000   1.0000   1.0000   1.0000
     1.0000   1.0000   1.0000   1.0000   1.0000   1.0000   1.0000   1.0000
     1.0000   1.0000   1.0000   1.0000   1.0000   1.0000   1.0000   1.0000
     1.0000   1.0000   1.0000   1.0000   1.0000   1.0000   1.0000   1.0000

          k = 0.2500 0.2547 0.0000 ( 23245 PWs)   bands (ev):

   -35.7648 -35.7647 -35.7581 -35.7580 -35.6749 -35.6748 -35.6679 -35.6678
   -29.0294 -29.0285 -29.0231 -29.0222 -16.3419 -16.3173 -16.2913 -16.2584
   -16.2544 -16.2494 -16.2397 -16.2340 -16.1982 -16.1363 -16.1146 -16.1043
   -16.0595 -16.0323 -16.0208 -16.0145 -15.9885 -15.9766 -15.9724 -15.9702
   -15.9588 -15.9559 -15.9252 -15.9227 -15.9145 -15.8918 -15.8726 -15.8551
   -10.8780 -10.8545 -10.8296 -10.8236 -10.8174 -10.8143 -10.7980 -10.7921
   -10.7702 -10.7663 -10.6683 -10.6644  -7.3652  -7.3226  -7.1843  -7.1678
    -7.1412  -7.1004  -7.0377  -7.0337  -6.7834  -6.7735  -6.7701  -6.7572
    -6.3756  -6.3543  -6.3377  -6.3280  -6.2293  -6.2136  -6.1789  -6.1509
    -6.1188  -6.1150  -6.0696  -6.0418  -1.6367  -1.5137  -1.4560  -1.4407
    -1.3594  -1.3007  -1.2949  -1.2632  -1.2213  -1.2201  -1.2092  -1.1028
     5.0079   5.0197   5.0909   5.1065   5.2367   5.2633   5.2637   5.3889
     5.4163   5.4166   5.4816   5.5513   5.5904   5.6989   5.7587   5.8556
     5.9388   6.0044   6.0937   6.1706   6.2472   6.2940   6.4023   6.4255
     6.4494   6.4856   6.5719   6.5751   6.6933   6.7515   6.8100   6.8621
     6.8827   6.9577   6.9746   7.0501   7.0855   7.1159   7.2143   7.2477
     7.2798   7.3012   7.4245   7.5349   7.5835   7.6102   7.6599   7.7074
     7.7140   7.7158   7.7711   7.8348   7.8512   7.8543   7.9262   7.9291
     7.9312   8.0217   8.0291   8.0367   8.1499   8.1660   8.2448   8.2795
     8.3445   8.3983   8.4219   8.4374   8.4730   8.4864   8.5828   8.6365

     occupation numbers 
     1.0000   1.0000   1.0000   1.0000   1.0000   1.0000   1.0000   1.0000
     1.0000   1.0000   1.0000   1.0000   1.0000   1.0000   1.0000   1.0000
     1.0000   1.0000   1.0000   1.0000   1.0000   1.0000   1.0000   1.0000
     1.0000   1.0000   1.0000   1.0000   1.0000   1.0000   1.0000   1.0000
     1.0000   1.0000   1.0000   1.0000   1.0000   1.0000   1.0000   1.0000
     1.0000   1.0000   1.0000   1.0000   1.0000   1.0000   1.0000   1.0000
     1.0000   1.0000   1.0000   1.0000   1.0000   1.0000   1.0000   1.0000
     1.0000   1.0000   1.0000   1.0000   1.0000   1.0000   1.0000   1.0000
     1.0000   1.0000   1.0000   1.0000   1.0000   1.0000   1.0000   1.0000
     1.0000   1.0000   1.0000   1.0000   1.0000   1.0000   1.0000   1.0000
     1.0000   1.0000   1.0000   1.0000   1.0000   1.0000   1.0000   1.0000
     1.0000   1.0000   1.0000   1.0000   1.0000   1.0000   1.0000   1.0000
     1.0000   1.0000   1.0000   1.0000   1.0000   1.0000   1.0000   1.0000
     1.0000   1.0000   1.0000   1.0000   1.0000   1.0000   1.0000   1.0000
     1.0000   1.0000   1.0000   1.0000   1.0000   1.0000   1.0000   1.0000
     1.0000   1.0000   1.0000   1.0000   1.0000   1.0000   1.0000   1.0000
     1.0000   1.0000   1.0000   1.0000   1.0000   1.0000   1.0000   1.0000
     1.0000   1.0000   1.0000   1.0000   1.0000   1.0000   1.0000   1.0000
     1.0000   1.0000   1.0000   1.0000   1.0000   1.0000   1.0000   1.0000
     1.0000   1.0000   1.0000   1.0000   1.0000   1.0000   1.0000   1.0000

          k = 0.2500 0.2547 0.2579 ( 23235 PWs)   bands (ev):

   -35.7641 -35.7639 -35.7589 -35.7588 -35.6739 -35.6738 -35.6690 -35.6688
   -29.0294 -29.0285 -29.0231 -29.0221 -16.3096 -16.3027 -16.2632 -16.2541
   -16.2410 -16.2365 -16.2222 -16.2160 -16.1890 -16.1341 -16.1151 -16.1073
   -16.0722 -16.0326 -16.0233 -16.0199 -16.0172 -16.0094 -15.9994 -15.9921
   -15.9772 -15.9675 -15.9472 -15.9416 -15.9086 -15.8838 -15.8557 -15.8511
   -10.8768 -10.8536 -10.8286 -10.8236 -10.8167 -10.8141 -10.7978 -10.7917
   -10.7699 -10.7660 -10.6681 -10.6642  -7.2494  -7.2456  -7.1425  -7.1331
    -7.1099  -7.0772  -6.9448  -6.9325  -6.7881  -6.7712  -6.7537  -6.7367
    -6.3728  -6.3725  -6.3402  -6.3203  -6.3061  -6.3028  -6.2472  -6.2351
    -6.1750  -6.1733  -6.1614  -6.1440  -1.6358  -1.5148  -1.4563  -1.4407
    -1.3597  -1.3008  -1.2957  -1.2636  -1.2215  -1.2209  -1.2094  -1.1037
     5.1376   5.1636   5.1729   5.2317   5.2943   5.3399   5.4008   5.4932
     5.5024   5.5451   5.5567   5.6161   5.6906   5.7204   5.8382   5.8438
     6.0086   6.0460   6.0858   6.1245   6.1480   6.2866   6.3312   6.3875
     6.4138   6.4643   6.5139   6.5710   6.5851   6.6570   6.6799   6.7329
     6.7638   6.8686   6.8855   6.9609   6.9944   7.0717   7.0836   7.2696
     7.3553   7.4752   7.4971   7.5371   7.5823   7.6591   7.6725   7.6969
     7.7169   7.7860   7.7994   7.8408   7.8543   7.8616   7.9191   7.9237
     7.9393   7.9538   7.9801   8.0270   8.0488   8.0885   8.1685   8.1940
     8.2819   8.2891   8.3707   8.4125   8.4216   8.5273   8.5505   8.6227

     occupation numbers 
     1.0000   1.0000   1.0000   1.0000   1.0000   1.0000   1.0000   1.0000
     1.0000   1.0000   1.0000   1.0000   1.0000   1.0000   1.0000   1.0000
     1.0000   1.0000   1.0000   1.0000   1.0000   1.0000   1.0000   1.0000
     1.0000   1.0000   1.0000   1.0000   1.0000   1.0000   1.0000   1.0000
     1.0000   1.0000   1.0000   1.0000   1.0000   1.0000   1.0000   1.0000
     1.0000   1.0000   1.0000   1.0000   1.0000   1.0000   1.0000   1.0000
     1.0000   1.0000   1.0000   1.0000   1.0000   1.0000   1.0000   1.0000
     1.0000   1.0000   1.0000   1.0000   1.0000   1.0000   1.0000   1.0000
     1.0000   1.0000   1.0000   1.0000   1.0000   1.0000   1.0000   1.0000
     1.0000   1.0000   1.0000   1.0000   1.0000   1.0000   1.0000   1.0000
     1.0000   1.0000   1.0000   1.0000   1.0000   1.0000   1.0000   1.0000
     1.0000   1.0000   1.0000   1.0000   1.0000   1.0000   1.0000   1.0000
     1.0000   1.0000   1.0000   1.0000   1.0000   1.0000   1.0000   1.0000
     1.0000   1.0000   1.0000   1.0000   1.0000   1.0000   1.0000   1.0000
     1.0000   1.0000   1.0000   1.0000   1.0000   1.0000   1.0000   1.0000
     1.0000   1.0000   1.0000   1.0000   1.0000   1.0000   1.0000   1.0000
     1.0000   1.0000   1.0000   1.0000   1.0000   1.0000   1.0000   1.0000
     1.0000   1.0000   1.0000   1.0000   1.0000   1.0000   1.0000   1.0000
     1.0000   1.0000   1.0000   1.0000   1.0000   1.0000   1.0000   1.0000
     1.0000   1.0000   1.0000   1.0000   1.0000   1.0000   1.0000   1.0000

          k = 0.2500 0.2547-0.5158 ( 23212 PWs)   bands (ev):

   -35.7629 -35.7628 -35.7601 -35.7599 -35.6719 -35.6718 -35.6710 -35.6709
   -29.0294 -29.0285 -29.0231 -29.0221 -16.3058 -16.2515 -16.2423 -16.2392
   -16.2355 -16.2346 -16.1650 -16.1611 -16.1489 -16.1462 -16.1238 -16.1065
   -16.0896 -16.0828 -16.0760 -16.0715 -16.0355 -16.0247 -16.0241 -16.0199
   -15.9745 -15.9645 -15.9544 -15.9490 -15.9073 -15.8803 -15.8482 -15.8455
   -10.8756 -10.8528 -10.8276 -10.8235 -10.8160 -10.8139 -10.7976 -10.7913
   -10.7695 -10.7656 -10.6679 -10.6640  -7.2562  -7.1540  -7.1253  -7.0791
    -7.0065  -6.8457  -6.8082  -6.8033  -6.7750  -6.7410  -6.6156  -6.6126
    -6.5673  -6.5593  -6.5482  -6.5313  -6.3810  -6.3594  -6.3382  -6.3011
    -6.2036  -6.1920  -6.1615  -6.1538  -1.6349  -1.5158  -1.4564  -1.4406
    -1.3599  -1.3010  -1.2964  -1.2639  -1.2218  -1.2217  -1.2095  -1.1046
     5.1899   5.2281   5.2304   5.3336   5.3337   5.4672   5.5672   5.6154
     5.6254   5.6566   5.6573   5.7765   5.7809   5.8884   5.8982   6.0231
     6.0562   6.0634   6.0649   6.1039   6.1646   6.2163   6.2663   6.3200
     6.3649   6.3777   6.4808   6.5308   6.5428   6.6316   6.6331   6.7301
     6.7388   6.7904   6.8687   6.8777   6.8835   7.0223   7.0441   7.1241
     7.1577   7.2814   7.2862   7.4302   7.5043   7.5716   7.6257   7.6558
     7.7022   7.7328   7.7443   7.8378   7.8538   7.9112   7.9130   7.9336
     7.9617   8.0359   8.0832   8.1033   8.1135   8.1242   8.1361   8.1848
     8.2132   8.2291   8.3939   8.4151   8.4391   8.4904   8.5141   8.5373

     occupation numbers 
     1.0000   1.0000   1.0000   1.0000   1.0000   1.0000   1.0000   1.0000
     1.0000   1.0000   1.0000   1.0000   1.0000   1.0000   1.0000   1.0000
     1.0000   1.0000   1.0000   1.0000   1.0000   1.0000   1.0000   1.0000
     1.0000   1.0000   1.0000   1.0000   1.0000   1.0000   1.0000   1.0000
     1.0000   1.0000   1.0000   1.0000   1.0000   1.0000   1.0000   1.0000
     1.0000   1.0000   1.0000   1.0000   1.0000   1.0000   1.0000   1.0000
     1.0000   1.0000   1.0000   1.0000   1.0000   1.0000   1.0000   1.0000
     1.0000   1.0000   1.0000   1.0000   1.0000   1.0000   1.0000   1.0000
     1.0000   1.0000   1.0000   1.0000   1.0000   1.0000   1.0000   1.0000
     1.0000   1.0000   1.0000   1.0000   1.0000   1.0000   1.0000   1.0000
     1.0000   1.0000   1.0000   1.0000   1.0000   1.0000   1.0000   1.0000
     1.0000   1.0000   1.0000   1.0000   1.0000   1.0000   1.0000   1.0000
     1.0000   1.0000   1.0000   1.0000   1.0000   1.0000   1.0000   1.0000
     1.0000   1.0000   1.0000   1.0000   1.0000   1.0000   1.0000   1.0000
     1.0000   1.0000   1.0000   1.0000   1.0000   1.0000   1.0000   1.0000
     1.0000   1.0000   1.0000   1.0000   1.0000   1.0000   1.0000   1.0000
     1.0000   1.0000   1.0000   1.0000   1.0000   1.0000   1.0000   1.0000
     1.0000   1.0000   1.0000   1.0000   1.0000   1.0000   1.0000   1.0000
     1.0000   1.0000   1.0000   1.0000   1.0000   1.0000   1.0000   1.0000
     1.0000   1.0000   1.0000   1.0000   1.0000   1.0000   1.0000   1.0000

          k = 0.2500 0.2547-0.2579 ( 23235 PWs)   bands (ev):

   -35.7641 -35.7639 -35.7589 -35.7588 -35.6739 -35.6738 -35.6690 -35.6688
   -29.0294 -29.0285 -29.0231 -29.0221 -16.3096 -16.3027 -16.2633 -16.2541
   -16.2410 -16.2365 -16.2222 -16.2160 -16.1889 -16.1341 -16.1151 -16.1073
   -16.0722 -16.0326 -16.0234 -16.0199 -16.0172 -16.0094 -15.9994 -15.9921
   -15.9772 -15.9675 -15.9472 -15.9416 -15.9086 -15.8838 -15.8556 -15.8511
   -10.8768 -10.8536 -10.8286 -10.8236 -10.8167 -10.8141 -10.7978 -10.7917
   -10.7699 -10.7660 -10.6681 -10.6642  -7.2495  -7.2455  -7.1425  -7.1331
    -7.1099  -7.0772  -6.9449  -6.9325  -6.7881  -6.7714  -6.7537  -6.7366
    -6.3728  -6.3725  -6.3402  -6.3203  -6.3061  -6.3028  -6.2472  -6.2351
    -6.1751  -6.1733  -6.1614  -6.1440  -1.6358  -1.5148  -1.4563  -1.4407
    -1.3597  -1.3008  -1.2957  -1.2636  -1.2215  -1.2209  -1.2094  -1.1037
     5.1376   5.1635   5.1730   5.2316   5.2944   5.3399   5.4008   5.4930
     5.5023   5.5452   5.5566   5.6160   5.6908   5.7203   5.8380   5.8439
     6.0087   6.0459   6.0858   6.1244   6.1480   6.2866   6.3310   6.3876
     6.4140   6.4645   6.5139   6.5711   6.5851   6.6568   6.6794   6.7329
     6.7640   6.8686   6.8855   6.9610   6.9944   7.0717   7.0835   7.2695
     7.3555   7.4754   7.4971   7.5373   7.5822   7.6591   7.6725   7.6970
     7.7169   7.7859   7.7994   7.8408   7.8543   7.8617   7.9191   7.9235
     7.9394   7.9536   7.9803   8.0269   8.0489   8.0885   8.1686   8.1941
     8.2818   8.2889   8.3707   8.4126   8.4216   8.5274   8.5505   8.6227

     occupation numbers 
     1.0000   1.0000   1.0000   1.0000   1.0000   1.0000   1.0000   1.0000
     1.0000   1.0000   1.0000   1.0000   1.0000   1.0000   1.0000   1.0000
     1.0000   1.0000   1.0000   1.0000   1.0000   1.0000   1.0000   1.0000
     1.0000   1.0000   1.0000   1.0000   1.0000   1.0000   1.0000   1.0000
     1.0000   1.0000   1.0000   1.0000   1.0000   1.0000   1.0000   1.0000
     1.0000   1.0000   1.0000   1.0000   1.0000   1.0000   1.0000   1.0000
     1.0000   1.0000   1.0000   1.0000   1.0000   1.0000   1.0000   1.0000
     1.0000   1.0000   1.0000   1.0000   1.0000   1.0000   1.0000   1.0000
     1.0000   1.0000   1.0000   1.0000   1.0000   1.0000   1.0000   1.0000
     1.0000   1.0000   1.0000   1.0000   1.0000   1.0000   1.0000   1.0000
     1.0000   1.0000   1.0000   1.0000   1.0000   1.0000   1.0000   1.0000
     1.0000   1.0000   1.0000   1.0000   1.0000   1.0000   1.0000   1.0000
     1.0000   1.0000   1.0000   1.0000   1.0000   1.0000   1.0000   1.0000
     1.0000   1.0000   1.0000   1.0000   1.0000   1.0000   1.0000   1.0000
     1.0000   1.0000   1.0000   1.0000   1.0000   1.0000   1.0000   1.0000
     1.0000   1.0000   1.0000   1.0000   1.0000   1.0000   1.0000   1.0000
     1.0000   1.0000   1.0000   1.0000   1.0000   1.0000   1.0000   1.0000
     1.0000   1.0000   1.0000   1.0000   1.0000   1.0000   1.0000   1.0000
     1.0000   1.0000   1.0000   1.0000   1.0000   1.0000   1.0000   1.0000
[...]
     atom   17 type  2   force =     0.74809797   -0.46092632    1.72079911
     atom   18 type  2   force =     0.74846046   -0.46016995   -1.71753175
     atom   19 type  2   force =     0.73803236    0.46105141    1.72627090
     atom   20 type  2   force =     0.73621161    0.46056965   -1.72378325
     atom   21 type  2   force =     0.73755836    0.46091615    1.72703914
     atom   22 type  2   force =     0.73570133    0.46036343   -1.72456699
     atom   23 type  2   force =     0.74868687   -0.46100784    1.72001336
     atom   24 type  2   force =     0.74893082   -0.46031214   -1.71674487
     atom   25 type  2   force =     4.34647339    0.00154870   -0.00519769
     atom   26 type  2   force =    -1.61508786   -0.00315551   -0.00336927
     atom   27 type  2   force =    -2.52630417   -0.00261537    0.00082144
     atom   28 type  2   force =     1.28790657    0.00442289    0.00132765
     atom   29 type  2   force =    -2.52621918   -0.00204743    0.00083026
     atom   30 type  2   force =     1.28792313    0.00541756    0.00137177
     atom   31 type  2   force =     4.34646043    0.00202861   -0.00520905
     atom   32 type  2   force =    -1.61503827   -0.00419146   -0.00335317
     atom   33 type  2   force =    -0.13395381   -0.00366093    1.11652321
     atom   34 type  2   force =    -0.12971296   -0.00410178   -1.11612328
     atom   35 type  2   force =     1.13775229    0.00251285    1.75267273
     atom   36 type  2   force =     1.13992542    0.00356838   -1.75026978
     atom   37 type  2   force =     1.13779526    0.00304465    1.75269505
     atom   38 type  2   force =     1.13994433    0.00407990   -1.75035147
     atom   39 type  2   force =    -0.13391755   -0.00379060    1.11646759
     atom   40 type  2   force =    -0.12967702   -0.00424788   -1.11607777
     The local contribution  to forces
     atom    1 type  4   force =     5.33414370    3.27975530    0.00249864
     atom    2 type  4   force =     5.33352189    3.27988668    0.00251667
     atom    3 type  4   force =     5.34335295   -3.28873155    0.00298623
     atom    4 type  4   force =     5.34387388   -3.28836265    0.00296244
     atom    5 type  1   force =     0.88963894   -0.63446718    0.00043108
     atom    6 type  1   force =     0.89945130    0.63512412    0.00094723
     atom    7 type  1   force =     0.89961398    0.63493304    0.00086313
     atom    8 type  1   force =     0.88943354   -0.63461374    0.00037865
     atom    9 type  3   force =    -1.53099403    0.00672730   -3.15252567
     atom   10 type  3   force =    -1.52443892    0.00644192    3.14855761
     atom   11 type  3   force =    -1.30154223   -0.00292712   -2.65383454
     atom   12 type  3   force =    -1.30095660   -0.00270205    2.65300429
     atom   13 type  3   force =    -1.30161362   -0.00399554   -2.65388490
     atom   14 type  3   force =    -1.30100221   -0.00375605    2.65302970
     atom   15 type  3   force =    -1.53110928    0.00823832   -3.15242431
     atom   16 type  3   force =    -1.52447786    0.00790329    3.14849724
     atom   17 type  2   force =    -0.74955440    0.45002237   -1.70573375
     atom   18 type  2   force =    -0.74988552    0.44931603    1.70269772
     atom   19 type  2   force =    -0.73997821   -0.45030097   -1.71098615
     atom   20 type  2   force =    -0.73822427   -0.44983638    1.70869350
     atom   21 type  2   force =    -0.73954142   -0.45018516   -1.71172422
     atom   22 type  2   force =    -0.73775156   -0.44965765    1.70944733
     atom   23 type  2   force =    -0.75010347    0.45008608   -1.70497770
     atom   24 type  2   force =    -0.75032421    0.44943217    1.70193852
     atom   25 type  2   force =    -4.21104219   -0.00138282    0.00458017
     atom   26 type  2   force =     1.55096248    0.00324668    0.00291098
     atom   27 type  2   force =     2.32969778    0.00248575   -0.00070361
     atom   28 type  2   force =    -1.27434762   -0.00429733   -0.00113827
     atom   29 type  2   force =     2.32961739    0.00194526   -0.00070806
     atom   30 type  2   force =    -1.27436342   -0.00528006   -0.00117753
     atom   31 type  2   force =    -4.21103325   -0.00179626    0.00458968
     atom   32 type  2   force =     1.55091509    0.00427401    0.00289480
     atom   33 type  2   force =     0.27145067    0.00355450   -1.15590143
     atom   34 type  2   force =     0.26758721    0.00400334    1.15554071
     atom   35 type  2   force =    -0.96659384   -0.00244076   -1.70600188
     atom   36 type  2   force =    -0.96845761   -0.00346482    1.70386877
     atom   37 type  2   force =    -0.96663331   -0.00297691   -1.70602665
     atom   38 type  2   force =    -0.96847754   -0.00398143    1.70394477
     atom   39 type  2   force =     0.27141500    0.00369630   -1.15584684
     atom   40 type  2   force =     0.26755435    0.00416033    1.15549805
     The core correction contribution to forces
     atom    1 type  4   force =     0.00000000    0.00000000    0.00000000
     atom    2 type  4   force =     0.00000000    0.00000000    0.00000000
     atom    3 type  4   force =     0.00000000    0.00000000    0.00000000
     atom    4 type  4   force =     0.00000000    0.00000000    0.00000000
     atom    5 type  1   force =     0.00000000    0.00000000    0.00000000
     atom    6 type  1   force =     0.00000000    0.00000000    0.00000000
     atom    7 type  1   force =     0.00000000    0.00000000    0.00000000
     atom    8 type  1   force =     0.00000000    0.00000000    0.00000000
     atom    9 type  3   force =     0.00000000    0.00000000    0.00000000
     atom   10 type  3   force =     0.00000000    0.00000000    0.00000000
     atom   11 type  3   force =     0.00000000    0.00000000    0.00000000
     atom   12 type  3   force =     0.00000000    0.00000000    0.00000000
     atom   13 type  3   force =     0.00000000    0.00000000    0.00000000
     atom   14 type  3   force =     0.00000000    0.00000000    0.00000000
     atom   15 type  3   force =     0.00000000    0.00000000    0.00000000
     atom   16 type  3   force =     0.00000000    0.00000000    0.00000000
     atom   17 type  2   force =     0.00000000    0.00000000    0.00000000
     atom   18 type  2   force =     0.00000000    0.00000000    0.00000000
     atom   19 type  2   force =     0.00000000    0.00000000    0.00000000
     atom   20 type  2   force =     0.00000000    0.00000000    0.00000000
     atom   21 type  2   force =     0.00000000    0.00000000    0.00000000
     atom   22 type  2   force =     0.00000000    0.00000000    0.00000000
     atom   23 type  2   force =     0.00000000    0.00000000    0.00000000
     atom   24 type  2   force =     0.00000000    0.00000000    0.00000000
     atom   25 type  2   force =     0.00000000    0.00000000    0.00000000
     atom   26 type  2   force =     0.00000000    0.00000000    0.00000000
     atom   27 type  2   force =     0.00000000    0.00000000    0.00000000
     atom   28 type  2   force =     0.00000000    0.00000000    0.00000000
     atom   29 type  2   force =     0.00000000    0.00000000    0.00000000
     atom   30 type  2   force =     0.00000000    0.00000000    0.00000000
     atom   31 type  2   force =     0.00000000    0.00000000    0.00000000
     atom   32 type  2   force =     0.00000000    0.00000000    0.00000000
     atom   33 type  2   force =     0.00000000    0.00000000    0.00000000
     atom   34 type  2   force =     0.00000000    0.00000000    0.00000000
     atom   35 type  2   force =     0.00000000    0.00000000    0.00000000
     atom   36 type  2   force =     0.00000000    0.00000000    0.00000000
     atom   37 type  2   force =     0.00000000    0.00000000    0.00000000
     atom   38 type  2   force =     0.00000000    0.00000000    0.00000000
     atom   39 type  2   force =     0.00000000    0.00000000    0.00000000
     atom   40 type  2   force =     0.00000000    0.00000000    0.00000000
     The Hubbard contrib.    to forces
     atom    1 type  4   force =     0.00000000    0.00000000    0.00000000
     atom    2 type  4   force =     0.00000000    0.00000000    0.00000000
     atom    3 type  4   force =     0.00000000    0.00000000    0.00000000
     atom    4 type  4   force =     0.00000000    0.00000000    0.00000000
     atom    5 type  1   force =     0.00000000    0.00000000    0.00000000
     atom    6 type  1   force =     0.00000000    0.00000000    0.00000000
     atom    7 type  1   force =     0.00000000    0.00000000    0.00000000
     atom    8 type  1   force =     0.00000000    0.00000000    0.00000000
     atom    9 type  3   force =     0.00000000    0.00000000    0.00000000
     atom   10 type  3   force =     0.00000000    0.00000000    0.00000000
     atom   11 type  3   force =     0.00000000    0.00000000    0.00000000
     atom   12 type  3   force =     0.00000000    0.00000000    0.00000000
     atom   13 type  3   force =     0.00000000    0.00000000    0.00000000
     atom   14 type  3   force =     0.00000000    0.00000000    0.00000000
     atom   15 type  3   force =     0.00000000    0.00000000    0.00000000
     atom   16 type  3   force =     0.00000000    0.00000000    0.00000000
     atom   17 type  2   force =     0.00000000    0.00000000    0.00000000
     atom   18 type  2   force =     0.00000000    0.00000000    0.00000000
     atom   19 type  2   force =     0.00000000    0.00000000    0.00000000
     atom   20 type  2   force =     0.00000000    0.00000000    0.00000000
     atom   21 type  2   force =     0.00000000    0.00000000    0.00000000
     atom   22 type  2   force =     0.00000000    0.00000000    0.00000000
     atom   23 type  2   force =     0.00000000    0.00000000    0.00000000
     atom   24 type  2   force =     0.00000000    0.00000000    0.00000000
     atom   25 type  2   force =     0.00000000    0.00000000    0.00000000
     atom   26 type  2   force =     0.00000000    0.00000000    0.00000000
     atom   27 type  2   force =     0.00000000    0.00000000    0.00000000
     atom   28 type  2   force =     0.00000000    0.00000000    0.00000000
     atom   29 type  2   force =     0.00000000    0.00000000    0.00000000
     atom   30 type  2   force =     0.00000000    0.00000000    0.00000000
     atom   31 type  2   force =     0.00000000    0.00000000    0.00000000
     atom   32 type  2   force =     0.00000000    0.00000000    0.00000000
     atom   33 type  2   force =     0.00000000    0.00000000    0.00000000
     atom   34 type  2   force =     0.00000000    0.00000000    0.00000000
     atom   35 type  2   force =     0.00000000    0.00000000    0.00000000
     atom   36 type  2   force =     0.00000000    0.00000000    0.00000000
     atom   37 type  2   force =     0.00000000    0.00000000    0.00000000
     atom   38 type  2   force =     0.00000000    0.00000000    0.00000000
     atom   39 type  2   force =     0.00000000    0.00000000    0.00000000
     atom   40 type  2   force =     0.00000000    0.00000000    0.00000000
     The SCF correction term to forces
     atom    1 type  4   force =    -0.00000005   -0.00000007   -0.00000001
     atom    2 type  4   force =    -0.00000005   -0.00000009    0.00000000
     atom    3 type  4   force =    -0.00000005    0.00000006   -0.00000000
     atom    4 type  4   force =    -0.00000005    0.00000009    0.00000000
     atom    5 type  1   force =     0.00000001    0.00000001    0.00000000
     atom    6 type  1   force =     0.00000001   -0.00000001   -0.00000000
     atom    7 type  1   force =    -0.00000001    0.00000000   -0.00000000
     atom    8 type  1   force =    -0.00000001   -0.00000000    0.00000000
     atom    9 type  3   force =     0.00000003    0.00000000   -0.00000032
     atom   10 type  3   force =     0.00000003   -0.00000000    0.00000033
     atom   11 type  3   force =     0.00000001    0.00000000   -0.00000046
     atom   12 type  3   force =    -0.00000000    0.00000001    0.00000047
     atom   13 type  3   force =     0.00000003   -0.00000000   -0.00000047
     atom   14 type  3   force =     0.00000002   -0.00000000    0.00000046
     atom   15 type  3   force =     0.00000006    0.00000000   -0.00000033
     atom   16 type  3   force =     0.00000007    0.00000000    0.00000033
     atom   17 type  2   force =    -0.00000001   -0.00000032   -0.00000033
     atom   18 type  2   force =    -0.00000002   -0.00000033    0.00000034
     atom   19 type  2   force =    -0.00000001    0.00000032   -0.00000033
     atom   20 type  2   force =    -0.00000002    0.00000033    0.00000033
     atom   21 type  2   force =    -0.00000000    0.00000033   -0.00000034
     atom   22 type  2   force =    -0.00000000    0.00000034    0.00000034
     atom   23 type  2   force =    -0.00000000   -0.00000033   -0.00000034
     atom   24 type  2   force =    -0.00000000   -0.00000034    0.00000034
     atom   25 type  2   force =    -0.00000005   -0.00000000    0.00000001
     atom   26 type  2   force =    -0.00000003   -0.00000000   -0.00000001
     atom   27 type  2   force =     0.00000017    0.00000000   -0.00000000
     atom   28 type  2   force =    -0.00000003   -0.00000000   -0.00000000
     atom   29 type  2   force =     0.00000018    0.00000000    0.00000000
     atom   30 type  2   force =    -0.00000002   -0.00000000    0.00000000
     atom   31 type  2   force =    -0.00000003    0.00000000    0.00000000
     atom   32 type  2   force =    -0.00000003   -0.00000000   -0.00000000
     atom   33 type  2   force =    -0.00000028    0.00000000   -0.00000036
     atom   34 type  2   force =    -0.00000028   -0.00000000    0.00000037
     atom   35 type  2   force =     0.00000030    0.00000000   -0.00000030
     atom   36 type  2   force =     0.00000030    0.00000000    0.00000030
     atom   37 type  2   force =     0.00000027    0.00000000   -0.00000030
     atom   38 type  2   force =     0.00000030    0.00000000    0.00000030
     atom   39 type  2   force =    -0.00000029    0.00000000   -0.00000036
     atom   40 type  2   force =    -0.00000030    0.00000000    0.00000036

     Total force =     0.000168     Total SCF correction =     0.000002


     Computing stress (Cartesian axis) and pressure

          total   stress  (Ry/bohr**3)                   (kbar)     P=       -1.64
  -0.00001941  -0.00000026   0.00000011           -2.86       -0.04        0.02
  -0.00000026  -0.00000717  -0.00000001           -0.04       -1.05       -0.00
   0.00000011  -0.00000001  -0.00000681            0.02       -0.00       -1.00

     kinetic stress (kbar)  22728.31     -0.09      0.04
                               -0.09  22704.74     -0.01
                                0.04     -0.01  22716.61

     local   stress (kbar)  14017.10      1.72     -1.31
                                1.72   9779.93      0.63
                               -1.31      0.63  10191.98

     nonloc. stress (kbar) -15063.35      0.05     -0.03
                                0.05 -15045.53      0.01
                               -0.03      0.01 -15058.30

     hartree stress (kbar)   4482.98     -0.69      0.44
                               -0.69   5998.51     -0.21
                                0.44     -0.21   5938.61

     exc-cor stress (kbar)  -3984.29     -0.00      0.00
                               -0.00  -3981.33     -0.00
                                0.00     -0.00  -3982.50

     corecor stress (kbar)      0.00      0.00      0.00
                                0.00      0.00      0.00
                                0.00      0.00      0.00

     ewald   stress (kbar) -22183.61     -1.03      0.87
                               -1.03 -19457.38     -0.42
                                0.87     -0.42 -19807.40

     hubbard stress (kbar)      0.00      0.00      0.00
                                0.00      0.00      0.00
                                0.00      0.00      0.00

     DFT-D   stress (kbar)      0.00      0.00      0.00
                                0.00      0.00      0.00
                                0.00      0.00      0.00

     XDM     stress (kbar)      0.00      0.00      0.00
                                0.00      0.00      0.00
                                0.00      0.00      0.00

     dft-nl  stress (kbar)      0.00      0.00      0.00
                                0.00      0.00      0.00
                                0.00      0.00      0.00

     TS-vdW  stress (kbar)      0.00      0.00      0.00
                                0.00      0.00      0.00
                                0.00      0.00      0.00



     Writing output data file ./bto.save/
 
     init_run     :      3.00s CPU      3.19s WALL (       2 calls)
     electrons    :    654.63s CPU    660.94s WALL (      23 calls)
     update_pot   :     19.87s CPU     19.89s WALL (      21 calls)
     forces       :     13.34s CPU     13.62s WALL (      23 calls)
     stress       :     70.20s CPU     70.24s WALL (      23 calls)

     Called by init_run:
     wfcinit      :      1.59s CPU      1.68s WALL (       2 calls)
     wfcinit:atom :      0.04s CPU      0.04s WALL (       6 calls)
     wfcinit:wfcr :      1.43s CPU      1.50s WALL (       6 calls)
     potinit      :      0.78s CPU      0.80s WALL (       2 calls)
     hinit0       :      0.55s CPU      0.60s WALL (       2 calls)

     Called by electrons:
     c_bands      :    602.68s CPU    607.89s WALL (     253 calls)
     sum_band     :     44.39s CPU     45.10s WALL (     253 calls)
     v_of_rho     :      4.63s CPU      4.68s WALL (     258 calls)
     v_h          :      0.35s CPU      0.35s WALL (     258 calls)
     v_xc         :      4.28s CPU      4.32s WALL (     258 calls)
     mix_rho      :      1.40s CPU      1.42s WALL (     253 calls)

     Called by c_bands:
     init_us_2    :      5.77s CPU      5.80s WALL (    1662 calls)
     cegterg      :    561.93s CPU    566.93s WALL (     759 calls)

     Called by sum_band:
     sum_band:wei :      0.03s CPU      0.03s WALL (     253 calls)
     sum_band:loo :     43.34s CPU     44.02s WALL (     253 calls)
     sum_band:buf :      2.53s CPU      2.54s WALL (     759 calls)
     sum_band:ini :      2.68s CPU      2.69s WALL (     759 calls)

     Called by *egterg:
     cdiaghg      :     99.45s CPU     99.97s WALL (    4003 calls)
     cegterg:over :     53.57s CPU     53.85s WALL (    3361 calls)
     cegterg:upda :     54.70s CPU     54.76s WALL (    3361 calls)
     cegterg:last :     67.11s CPU     67.12s WALL (    1871 calls)
     cdiaghg:chol :      3.37s CPU      3.66s WALL (    4003 calls)
     cdiaghg:inve :      3.81s CPU      3.96s WALL (    4003 calls)
     cdiaghg:para :      6.93s CPU      6.98s WALL (    8006 calls)
     h_psi        :    268.36s CPU    272.52s WALL (    4126 calls)
     g_psi        :      2.91s CPU      2.93s WALL (    3361 calls)

     Called by h_psi:
     h_psi:calbec :     28.00s CPU     28.06s WALL (    4126 calls)
     vloc_psi     :    204.84s CPU    208.88s WALL (    4126 calls)
     add_vuspsi   :     28.17s CPU     28.21s WALL (    4126 calls)

     General routines
     calbec       :     31.89s CPU     31.96s WALL (    4471 calls)
     fft          :      2.09s CPU      2.14s WALL (    2780 calls)
     ffts         :      0.18s CPU      0.18s WALL (     253 calls)
     fftw         :    214.73s CPU    219.00s WALL (  849786 calls)
 
     Parallel routines
     fft_scatt_xy :     27.84s CPU     28.28s WALL (  852819 calls)
     fft_scatt_yz :     74.07s CPU     75.47s WALL (  852819 calls)
 
     PWSCF        :  12m42.48s CPU  12m51.80s WALL

 
   This run was terminated on:  12:10:58   9Feb2021            

=------------------------------------------------------------------------------=
   JOB DONE.
=------------------------------------------------------------------------------=
