ITEM: TIMESTEP
0
ITEM: NUMBER OF ATOMS
40
ITEM: BOX BOUNDS pp pp pp
0 8.02766
0 8.04066
0 8.01998
ITEM: ATOMS x y z fx fy fz 
8.02648 8.02687 8.01683 -0.0127945 -0.0550807 0.0247182 
8.02411 8.03805 3.99887 0.00283279 -0.0793276 -0.00890987 
8.02691 4.00676 8.01571 -0.0358775 -0.0507356 -0.00210614 
8.02513 4.0121 3.99853 -0.0219292 -0.0505075 0.0168616 
4.00363 8.03433 8.01396 0.00779201 -0.070525 0.0333721 
4.00996 8.02886 3.99614 -0.022225 -0.0452127 -0.00905088 
4.0046 4.02027 8.01437 0.0161451 -0.0817799 0.00301597 
4.00893 4.01248 4.0012 0.00476534 -0.0270591 -0.00312706 
2.06761 2.03552 2.05068 -0.0327529 -0.0249873 0.0268449 
1.94299 1.94828 6.06018 0.0817007 0.143922 -0.0734249 
2.03589 6.05095 2.0522 0.107451 0.0527557 0.0627596 
1.9431 5.97074 6.05983 0.107527 0.11523 -0.0593289 
6.07835 1.94652 1.95053 -0.0438496 0.183809 -0.0206256 
5.95419 1.94612 5.96245 0.0940207 0.250927 -0.0125955 
6.0519 5.96681 1.94651 0.0432682 0.144587 -0.00911311 
5.95834 5.97013 5.9573 0.109382 0.20346 -0.000962895 
2.00341 2.02158 7.97353 -0.0434414 -0.0224851 -0.138813 
2.00904 2.0377 3.96311 0.027108 -0.0867959 -0.23787 
2.01477 6.05767 7.97565 -0.0544064 -0.101765 -0.137662 
2.02045 6.03949 3.96263 -0.0775691 0.0147116 -0.297707 
6.02736 2.04712 0.0179156 -0.0263769 -0.121701 0.189374 
6.01403 2.04915 4.02902 -0.0364054 -0.175634 0.179503 
6.02724 6.07821 0.0220679 -0.0349297 -0.242565 0.232128 
6.02951 6.06871 4.02972 -0.0660222 -0.128484 0.188709 
1.99954 0.0114535 1.98421 0.100861 -0.0248709 0.112095 
2.0204 0.0543299 5.98139 -0.112783 0.15993 0.052922 
1.98165 4.02996 1.97362 0.061393 0.0361663 0.047316 
2.03639 4.07658 5.98798 -0.124385 0.168405 0.14379 
5.99506 0.0575064 2.01168 0.042618 0.215392 -0.051439 
6.04984 0.0645629 6.02472 -0.129545 0.167045 -0.108809 
6.01418 4.0767 2.01301 0.0728223 0.262121 -0.132453 
6.0383 4.08728 6.02244 -0.141029 0.159641 -0.0292734 
7.9893 2.02193 2.00352 -0.149023 -0.0622702 -0.0445144 
0.0355358 2.05304 5.99336 0.208255 -0.134918 0.0619826 
8.00568 6.06456 1.99817 -0.121586 -0.12391 -0.0178188 
0.0404985 6.05608 6.00604 0.187987 -0.0963027 -0.00422972 
3.97503 2.0474 1.98938 -0.202805 -0.108033 0.00633925 
4.04495 2.04298 6.00743 0.233653 -0.156685 0.0174285 
3.99319 6.04236 1.99434 -0.22467 -0.0568333 -0.000118299 
4.052 6.0768 6.00534 0.204822 -0.149635 0.000791294 
ITEM: TIMESTEP
1
ITEM: NUMBER OF ATOMS
40
ITEM: BOX BOUNDS pp pp pp
0 8.02766
0 8.04066
0 8.01998
ITEM: ATOMS x y z fx fy fz 
8.02648 8.02687 8.01683 -0.0127072 -0.0550359 0.0247459 
8.02411 8.03805 3.99887 0.00279675 -0.0792793 -0.00896753 
8.02691 4.00676 8.01571 -0.0357179 -0.0505964 -0.00200615 
8.02513 4.0121 3.99853 -0.0219097 -0.0504052 0.0167467 
4.00363 8.03433 8.01396 0.00772755 -0.0704599 0.033388 
4.00996 8.02886 3.99614 -0.0221461 -0.0450944 -0.00906602 
4.0046 4.02027 8.01437 0.0160464 -0.0816669 0.00307219 
4.00893 4.01248 4.0012 0.004787 -0.0269926 -0.00317115 
2.06761 2.03552 2.05068 -0.0328792 -0.0250963 0.026546 
1.943 1.9483 6.06017 0.0817368 0.143945 -0.0731888 
2.0359 6.05095 2.05221 0.107547 0.0524671 0.0623916 
1.94311 5.97075 6.05983 0.107567 0.115402 -0.0590123 
6.07835 1.94654 1.95053 -0.0439779 0.183807 -0.0207358 
5.9542 1.94615 5.96245 0.0940297 0.250881 -0.0126102 
6.05191 5.96683 1.94651 0.0435313 0.144758 -0.00918237 
5.95835 5.97015 5.9573 0.109409 0.203552 -0.000989063 
2.0034 2.02157 7.97349 -0.0431339 -0.0222776 -0.137935 
2.00904 2.03768 3.96304 0.0269243 -0.0862651 -0.236526 
2.01475 6.05764 7.97561 -0.0541014 -0.101061 -0.137008 
2.02042 6.03949 3.96254 -0.0774247 0.014714 -0.296088 
6.02735 2.04708 0.0179727 -0.026401 -0.121055 0.188539 
6.01402 2.04909 4.02907 -0.0360935 -0.174541 0.178522 
6.02723 6.07813 0.0221379 -0.0348574 -0.24136 0.231028 
6.02949 6.06867 4.02978 -0.0656886 -0.127823 0.187707 
1.99957 0.011446 1.98425 0.100283 -0.0248772 0.111395 
2.02037 0.0543782 5.98141 -0.112073 0.158436 0.0524797 
1.98167 4.02997 1.97363 0.0610488 0.0358041 0.0470871 
2.03636 4.07663 5.98802 -0.123638 0.16689 0.142802 
5.99507 0.0575714 2.01167 0.0422372 0.213591 -0.0510584 
6.0498 0.0646133 6.02469 -0.128768 0.165197 -0.108057 
6.01421 4.07677 2.01297 0.0722747 0.260065 -0.131567 
6.03826 4.08732 6.02243 -0.140221 0.157832 -0.02901 
7.98925 2.02191 2.00351 -0.148108 -0.0618101 -0.0442177 
0.0355986 2.053 5.99338 0.206947 -0.134153 0.0615936 
8.00565 6.06453 1.99817 -0.121362 -0.123221 -0.0176687 
0.0405552 6.05605 6.00604 0.186588 -0.095611 -0.00441687 
3.97497 2.04736 1.98938 -0.201609 -0.10751 0.00622822 
4.04502 2.04293 6.00743 0.232084 -0.155832 0.0174743 
3.99312 6.04234 1.99434 -0.223983 -0.0564815 -0.000129242 
4.05206 6.07675 6.00534 0.203236 -0.148836 0.000864773 
ITEM: TIMESTEP
2
ITEM: NUMBER OF ATOMS
40
ITEM: BOX BOUNDS pp pp pp
0 8.02766
0 8.04066
0 8.01998
ITEM: ATOMS x y z fx fy fz 
8.02648 8.02686 8.01683 -0.0124459 -0.0549013 0.0248272 
8.02411 8.03804 3.99887 0.00268825 -0.0791345 -0.00913877 
8.02691 4.00675 8.01571 -0.0352404 -0.0501799 -0.0017084 
8.02512 4.01209 3.99853 -0.0218517 -0.0500987 0.0164033 
4.00364 8.03432 8.01397 0.00753571 -0.0702642 0.0334337 
4.00996 8.02886 3.99614 -0.0219099 -0.0447399 -0.00910965 
4.0046 4.02026 8.01437 0.0157509 -0.0813297 0.00323912 
4.00893 4.01248 4.0012 0.00485223 -0.0267941 -0.00330229 
2.0676 2.03551 2.05069 -0.0332629 -0.0254204 0.0256455 
1.94302 1.94834 6.06015 0.0818511 0.144016 -0.0724863 
2.03594 6.05097 2.05222 0.107829 0.0516052 0.0612798 
1.94314 5.97078 6.05981 0.107692 0.115917 -0.0580714 
6.07834 1.9466 1.95052 -0.0443657 0.183806 -0.0210585 
5.95423 1.94623 5.96245 0.0940615 0.25074 -0.0126502 
6.05192 5.96687 1.94651 0.0443155 0.145275 -0.00937903 
5.95838 5.97022 5.9573 0.109493 0.203824 -0.00106291 
2.00336 2.02155 7.97336 -0.0422141 -0.0216571 -0.135306 
2.00907 2.0376 3.96283 0.0263743 -0.0846807 -0.2325 
2.0147 6.05754 7.97549 -0.0531904 -0.0989607 -0.135045 
2.02035 6.0395 3.96227 -0.0769942 0.0147197 -0.291232 
6.02733 2.04697 0.0181435 -0.0264732 -0.119125 0.186035 
6.01398 2.04893 4.02923 -0.0351611 -0.171276 0.175581 
6.0272 6.07791 0.0223472 -0.0346432 -0.237759 0.227728 
6.02944 6.06856 4.02995 -0.0646918 -0.125848 0.184702 
1.99966 0.0114235 1.98435 0.0985554 -0.0248952 0.109301 
2.02026 0.0545219 5.98146 -0.109952 0.153973 0.0511574 
1.98172 4.03 1.97368 0.0600191 0.0347218 0.0464018 
2.03625 4.07678 5.98815 -0.121408 0.162363 0.139848 
5.99511 0.0577651 2.01162 0.0410982 0.208202 -0.0499197 
6.04968 0.0647633 6.02459 -0.126448 0.159678 -0.105809 
6.01427 4.07701 2.01285 0.0706369 0.253913 -0.128918 
6.03813 4.08747 6.0224 -0.137807 0.152429 -0.0282216 
7.98912 2.02186 2.00347 -0.145364 -0.0604352 -0.0433306 
0.0357862 2.05288 5.99344 0.203028 -0.131868 0.0604309 
8.00554 6.06442 1.99815 -0.120688 -0.121162 -0.0172196 
0.0407244 6.05596 6.00603 0.182401 -0.093545 -0.00497654 
3.97479 2.04727 1.98938 -0.198029 -0.105947 0.00589573 
4.04523 2.04279 6.00745 0.22739 -0.153282 0.017612 
3.99292 6.04229 1.99434 -0.221921 -0.0554308 -0.000162975 
4.05225 6.07662 6.00534 0.198491 -0.14645 0.00108532 
ITEM: TIMESTEP
3
ITEM: NUMBER OF ATOMS
40
ITEM: BOX BOUNDS pp pp pp
0 8.02766
0 8.04066
0 8.01998
ITEM: ATOMS x y z fx fy fz 
8.02647 8.02685 8.01684 -0.0120143 -0.0546763 0.0249579 
8.02411 8.03803 3.99887 0.0025062 -0.0788929 -0.00941919 
8.0269 4.00674 8.01571 -0.03445 -0.0494917 -0.00121861 
8.02512 4.01208 3.99854 -0.0217564 -0.0495903 0.0158373 
4.00364 8.03431 8.01397 0.00721948 -0.0699373 0.0335054 
4.00996 8.02885 3.99614 -0.0215158 -0.044152 -0.0091772 
4.0046 4.02025 8.01437 0.0152621 -0.0807726 0.00351186 
4.00893 4.01247 4.0012 0.00496161 -0.026466 -0.00351554 
2.06758 2.0355 2.0507 -0.0339169 -0.0259505 0.0241298 
1.94306 1.94841 6.06011 0.082061 0.14414 -0.0713371 
2.03599 6.051 2.05226 0.108281 0.0501809 0.0594032 
1.94319 5.97084 6.05978 0.107912 0.116781 -0.0565323 
6.07831 1.94669 1.95051 -0.0450209 0.183819 -0.0215704 
5.95427 1.94635 5.96244 0.0941364 0.250501 -0.0127016 
6.05194 5.96694 1.9465 0.045605 0.146159 -0.00967138 
5.95844 5.97032 5.9573 0.109647 0.204269 -0.00116976 
2.0033 2.02152 7.97316 -0.0406918 -0.0206306 -0.130937 
2.00911 2.03747 3.96247 0.0254591 -0.0820659 -0.225809 
2.01462 6.05739 7.97528 -0.0516858 -0.0954873 -0.131772 
2.02024 6.03953 3.96183 -0.0762859 0.0147237 -0.283152 
6.02729 2.04679 0.0184265 -0.0265931 -0.115933 0.181864 
6.01393 2.04867 4.0295 -0.0336171 -0.16588 0.170695 
6.02715 6.07755 0.0226938 -0.0342949 -0.231797 0.222229 
6.02934 6.06837 4.03023 -0.0630434 -0.122581 0.179704 
1.99981 0.011386 1.98451 0.095691 -0.0249216 0.105834 
2.0201 0.0547586 5.98153 -0.106442 0.146588 0.0489686 
1.98181 4.03005 1.97375 0.0583115 0.0329314 0.0452624 
2.03606 4.07703 5.98837 -0.11772 0.154866 0.134962 
5.99518 0.0580844 2.01154 0.0392114 0.19927 -0.0480311 
6.04949 0.0650095 6.02443 -0.122609 0.15056 -0.102089 
6.01438 4.0774 2.01265 0.0679225 0.243701 -0.12453 
6.03792 4.0877 6.02236 -0.133813 0.143502 -0.0269135 
7.9889 2.02176 2.0034 -0.140804 -0.0581614 -0.0418625 
0.0360963 2.05267 5.99353 0.196516 -0.12809 0.0585061 
8.00535 6.06423 1.99813 -0.119552 -0.117751 -0.0164767 
0.0410036 6.05582 6.00603 0.175456 -0.0901319 -0.00590249 
3.97449 2.04711 1.98939 -0.192081 -0.103365 0.0053431 
4.04558 2.04256 6.00747 0.219601 -0.149066 0.0178428 
3.99258 6.04221 1.99434 -0.218481 -0.0536962 -0.000221154 
4.05255 6.07639 6.00534 0.190627 -0.142504 0.00145352 
ITEM: TIMESTEP
4
ITEM: NUMBER OF ATOMS
40
ITEM: BOX BOUNDS pp pp pp
0 8.02766
0 8.04066
0 8.01998
ITEM: ATOMS x y z fx fy fz 
8.02647 8.02684 8.01684 -0.0114173 -0.0543598 0.0251313 
8.02411 8.03801 3.99887 0.00224886 -0.0785534 -0.00980017 
8.02689 4.00673 8.01571 -0.0333548 -0.0485398 -0.000545805 
8.02511 4.01207 3.99854 -0.0216268 -0.0488833 0.0150578 
4.00364 8.03429 8.01398 0.00678414 -0.0694781 0.0335949 
4.00995 8.02884 3.99613 -0.0209649 -0.0433348 -0.00926119 
4.00461 4.02023 8.01437 0.014585 -0.0800028 0.00388219 
4.00894 4.01247 4.0012 0.0051167 -0.026012 -0.00380481 
2.06756 2.03548 2.05072 -0.0348619 -0.0266719 0.0219769 
1.94312 1.94851 6.06006 0.0823945 0.144322 -0.0697711 
2.03607 6.05103 2.0523 0.108876 0.0482105 0.056721 
1.94327 5.97092 6.05974 0.108247 0.117999 -0.0544376 
6.07828 1.94682 1.9505 -0.0459577 0.183862 -0.0222365 
5.95434 1.94653 5.96243 0.0942818 0.250153 -0.0127439 
6.05197 5.96705 1.9465 0.0473732 0.147442 -0.0100104 
5.95852 5.97046 5.9573 0.109891 0.204873 -0.00128622 
2.00321 2.02147 7.97287 -0.0385829 -0.0192102 -0.124855 
2.00916 2.03729 3.96198 0.0241818 -0.0784602 -0.216481 
2.01451 6.05718 7.975 -0.0496073 -0.0906828 -0.127186 
2.02007 6.03956 3.96121 -0.0753129 0.014718 -0.271864 
6.02724 2.04654 0.0188192 -0.0267608 -0.111513 0.17603 
6.01386 2.04831 4.02987 -0.0314778 -0.158424 0.163894 
6.02707 6.07705 0.0231745 -0.0338245 -0.223537 0.214533 
6.0292 6.0681 4.03062 -0.0607636 -0.118062 0.172731 
2.00002 0.0113334 1.98475 0.0917142 -0.0249492 0.101025 
2.01986 0.0550836 5.98164 -0.101581 0.136364 0.0459359 
1.98194 4.03013 1.97384 0.0559396 0.0304539 0.0436732 
2.0358 4.07737 5.98866 -0.112615 0.144478 0.1282 
5.99526 0.0585239 2.01144 0.0365937 0.18687 -0.0454066 
6.04922 0.0653466 6.02421 -0.117291 0.13797 -0.0969408 
6.01453 4.07794 2.01238 0.0641543 0.229496 -0.118442 
6.03763 4.08802 6.0223 -0.12828 0.13117 -0.0250947 
7.98859 2.02164 2.00331 -0.13445 -0.0550151 -0.0398284 
0.0365248 2.0524 5.99366 0.187446 -0.122868 0.0558388 
8.0051 6.06397 1.99809 -0.117933 -0.113023 -0.0154484 
0.0413886 6.05562 6.00601 0.165804 -0.0854183 -0.00718426 
3.97407 2.04688 1.98941 -0.183796 -0.0997988 0.00457321 
4.04606 2.04223 6.00751 0.208773 -0.143235 0.0181683 
3.99211 6.04209 1.99434 -0.21366 -0.0513031 -0.000306401 
4.05297 6.07608 6.00534 0.179713 -0.137046 0.0019696 
ITEM: TIMESTEP
5
ITEM: NUMBER OF ATOMS
40
ITEM: BOX BOUNDS pp pp pp
0 8.02766
0 8.04066
0 8.01998
ITEM: ATOMS x y z fx fy fz 
8.02647 8.02682 8.01685 -0.0106613 -0.0539498 0.0253378 
8.02412 8.03798 3.99887 0.00191488 -0.0781153 -0.0102705 
8.02688 4.00672 8.01571 -0.0319666 -0.0473358 0.000296332 
8.02511 4.01206 3.99854 -0.0214658 -0.0479823 0.0140776 
4.00364 8.03427 8.01399 0.00623675 -0.0688856 0.0336922 
4.00994 8.02882 3.99613 -0.0202579 -0.0422933 -0.00935099 
4.00461 4.0202 8.01437 0.0137272 -0.0790309 0.00433885 
4.00894 4.01246 4.0012 0.0053193 -0.0254373 -0.00416085 
2.06753 2.03546 2.05074 -0.036127 -0.0275635 0.0191607 
1.9432 1.94865 6.05999 0.0828892 0.144567 -0.0678313 
2.03617 6.05108 2.05235 0.109573 0.0457172 0.0531866 
1.94337 5.97103 6.05969 0.108721 0.119573 -0.0518485 
6.07824 1.94699 1.95048 -0.0471891 0.183956 -0.0230076 
5.95442 1.94676 5.96242 0.0945305 0.249682 -0.0127472 
6.05201 5.96718 1.94649 0.0495815 0.149159 -0.01033 
5.95862 5.97065 5.9573 0.110248 0.205613 -0.00138114 
2.00309 2.02142 7.97251 -0.0359104 -0.0174135 -0.117094 
2.00923 2.03706 3.96136 0.022548 -0.0739162 -0.204556 
2.01437 6.05692 7.97463 -0.0469841 -0.0846052 -0.121288 
2.01987 6.0396 3.96043 -0.0740959 0.014691 -0.2574 
6.02716 2.04622 0.019318 -0.0269738 -0.10592 0.168542 
6.01376 2.04785 4.03034 -0.0287657 -0.149004 0.155218 
6.02698 6.07641 0.0237846 -0.0332491 -0.213064 0.204642 
6.02903 6.06776 4.03111 -0.0578795 -0.112345 0.163816 
2.00029 0.0112658 1.98504 0.0866579 -0.0249707 0.0949194 
2.01957 0.0554909 5.98178 -0.095422 0.12342 0.0420927 
1.9821 4.03022 1.97397 0.0529233 0.0273189 0.0416419 
2.03548 4.0778 5.98904 -0.106153 0.131308 0.119638 
5.99537 0.0590761 2.01131 0.0332697 0.171109 -0.0420681 
6.04888 0.0657669 6.02393 -0.110554 0.122083 -0.0904191 
6.01472 4.07861 2.01204 0.0593631 0.211402 -0.110711 
6.03726 4.08842 6.02223 -0.121271 0.115607 -0.0227798 
7.9882 2.02148 2.00319 -0.126335 -0.0510331 -0.0372499 
0.0370664 2.05204 5.99382 0.175868 -0.116267 0.0524583 
8.00477 6.06365 1.99804 -0.115802 -0.107023 -0.0141463 
0.0418737 6.05537 6.006 0.153519 -0.079468 -0.00880597 
3.97354 2.0466 1.98942 -0.173218 -0.0952929 0.00359042 
4.04667 2.04182 6.00756 0.194988 -0.13586 0.0185887 
3.99151 6.04194 1.99434 -0.207451 -0.0482867 -0.000424272 
4.0535 6.07569 6.00535 0.165854 -0.130142 0.00263501 
ITEM: TIMESTEP
6
ITEM: NUMBER OF ATOMS
40
ITEM: BOX BOUNDS pp pp pp
0 8.02766
0 8.04066
0 8.01998
ITEM: ATOMS x y z fx fy fz 
8.02646 8.0268 8.01686 -0.00975597 -0.0534446 0.0255654 
8.02412 8.03795 3.99886 0.00150212 -0.0775768 -0.0108153 
8.02687 4.0067 8.01571 -0.0302998 -0.0458935 0.00129167 
8.0251 4.01204 3.99855 -0.0212783 -0.0468939 0.0129122 
4.00364 8.03424 8.01401 0.00558791 -0.0681576 0.033784 
4.00994 8.02881 3.99613 -0.0193955 -0.0410344 -0.00943455 
4.00462 4.02017 8.01437 0.0126986 -0.0778698 0.00486781 
4.00894 4.01245 4.0012 0.00557219 -0.024749 -0.00457159 
2.06749 2.03543 2.05077 -0.0377409 -0.0286 0.0156485 
1.94329 1.9488 6.05991 0.083585 0.14488 -0.0655646 
2.03629 6.05113 2.05242 0.110323 0.0427312 0.0487437 
1.94349 5.97116 6.05963 0.109356 0.1215 -0.0488286 
6.07819 1.94719 1.95046 -0.0487278 0.184116 -0.0238267 
5.95453 1.94703 5.96241 0.0949243 0.249058 -0.0126764 
6.05207 5.96734 1.94648 0.0521884 0.15135 -0.0105483 
5.95874 5.97087 5.9573 0.110743 0.206454 -0.0014191 
2.00296 2.02135 7.97208 -0.0327046 -0.0152616 -0.107704 
2.00932 2.03679 3.96062 0.0205652 -0.0685018 -0.190098 
2.0142 6.05661 7.9742 -0.0438542 -0.0773301 -0.114089 
2.01961 6.03965 3.9595 -0.0726554 0.0146291 -0.239806 
6.02708 2.04584 0.0199185 -0.0272295 -0.0992162 0.159413 
6.01365 2.04731 4.03091 -0.02551 -0.137741 0.144724 
6.02687 6.07565 0.0245181 -0.0325897 -0.200489 0.192572 
6.02882 6.06736 4.0317 -0.0544289 -0.105499 0.152998 
2.0006 0.0111832 1.98539 0.0805665 -0.0249745 0.0875773 
2.01922 0.0559726 5.98194 -0.0880355 0.107913 0.0374814 
1.98229 4.03033 1.97412 0.0492878 0.0235637 0.0391771 
2.03509 4.07831 5.98948 -0.0984101 0.115505 0.109375 
5.9955 0.0597315 2.01115 0.0292741 0.152136 -0.0380417 
6.04848 0.0662609 6.02359 -0.102472 0.103134 -0.0825994 
6.01494 4.07941 2.01163 0.0535918 0.189558 -0.101408 
6.03682 4.0889 6.02214 -0.112862 0.0970323 -0.0199869 
7.98774 2.02129 2.00306 -0.116508 -0.0462642 -0.0341554 
0.0377141 2.05162 5.99401 0.161854 -0.108372 0.0484019 
8.00438 6.06326 1.99799 -0.113128 -0.0998146 -0.0125863 
0.0424513 6.05508 6.00598 0.138705 -0.072363 -0.0107477 
3.97291 2.04626 1.98944 -0.160417 -0.0899091 0.00240117 
4.04739 2.04133 6.00762 0.178355 -0.127034 0.0191038 
3.99079 6.04176 1.99434 -0.199859 -0.0446932 -0.000577943 
4.05412 6.07522 6.00535 0.149182 -0.121878 0.00344661 
ITEM: TIMESTEP
7
ITEM: NUMBER OF ATOMS
40
ITEM: BOX BOUNDS pp pp pp
0 8.02766
0 8.04066
0 8.01998
ITEM: ATOMS x y z fx fy fz 
8.02646 8.02677 8.01687 -0.00871294 -0.0528408 0.0257987 
8.02412 8.03791 3.99886 0.00100804 -0.0769362 -0.0114178 
8.02685 4.00667 8.01571 -0.028374 -0.0442295 0.00241999 
8.02509 4.01202 3.99856 -0.0210695 -0.0456259 0.0115814 
4.00365 8.03421 8.01402 0.00484988 -0.0672922 0.0338536 
4.00993 8.02879 3.99612 -0.018379 -0.0395672 -0.00949603 
4.00462 4.02013 8.01438 0.0115118 -0.0765345 0.00545155 
4.00894 4.01243 4.0012 0.0058785 -0.0239555 -0.00502151 
2.06745 2.03539 2.0508 -0.0397385 -0.0297505 0.011413 
1.9434 1.94899 6.05982 0.0845268 0.145253 -0.0630248 
2.03643 6.0512 2.05249 0.111073 0.0392873 0.0433312 
1.94363 5.97131 6.05955 0.110176 0.123771 -0.0454649 
6.07813 1.94743 1.95043 -0.0505909 0.18436 -0.0246235 
5.95465 1.94736 5.96239 0.095502 0.248244 -0.0124979 
6.05213 5.96753 1.94647 0.0551376 0.154043 -0.0105702 
5.95888 5.97114 5.9573 0.111396 0.207347 -0.00136405 
2.00281 2.02127 7.97158 -0.0290039 -0.0127864 -0.0967561 
2.00941 2.03648 3.95976 0.0182424 -0.0622972 -0.173189 
2.014 6.05624 7.97369 -0.0402639 -0.0689495 -0.105603 
2.01932 6.0397 3.95842 -0.071019 0.0145162 -0.219142 
6.02697 2.0454 0.0206151 -0.0275232 -0.0914841 0.148673 
6.01353 2.04668 4.03156 -0.0217481 -0.124785 0.132485 
6.02673 6.07476 0.0253677 -0.03187 -0.185946 0.17835 
6.02858 6.06689 4.03239 -0.0504577 -0.0976107 0.140335 
2.00097 0.0110855 1.98579 0.073489 -0.0249485 0.0790695 
2.01882 0.0565194 5.98212 -0.0795048 0.0900405 0.0321553 
1.98252 4.03045 1.97429 0.0450629 0.0192341 0.0362929 
2.03464 4.07889 5.98999 -0.0894811 0.097259 0.0975325 
5.99565 0.0604787 2.01097 0.0246473 0.130145 -0.0333634 
6.04801 0.066817 6.0232 -0.093138 0.0814129 -0.0735703 
6.0152 4.08033 2.01116 0.0468907 0.164145 -0.0906222 
6.03631 4.08942 6.02204 -0.103152 0.0757304 -0.016742 
7.9872 2.02107 2.0029 -0.105034 -0.040769 -0.0305801 
0.0384594 2.05113 5.99424 0.145502 -0.0992881 0.0437166 
8.00391 6.06281 1.99793 -0.10988 -0.0914703 -0.0107868 
0.0431125 6.05474 6.00595 0.121498 -0.0642057 -0.0129817 
3.97218 2.04586 1.98946 -0.14547 -0.0837145 0.00101539 
4.04822 2.04076 6.00769 0.15902 -0.116868 0.0197141 
3.98995 6.04156 1.99434 -0.190873 -0.0405748 -0.000772413 
4.05484 6.07468 6.00536 0.129871 -0.112358 0.00440214 
ITEM: TIMESTEP
8
ITEM: NUMBER OF ATOMS
40
ITEM: BOX BOUNDS pp pp pp
0 8.02766
0 8.04066
0 8.01998
ITEM: ATOMS x y z fx fy fz 
8.02645 8.02675 8.01689 -0.00754519 -0.0521357 0.0260205 
8.02412 8.03787 3.99885 0.000430064 -0.0761923 -0.0120578 
8.02683 4.00665 8.01571 -0.0262091 -0.0423635 0.0036573 
8.02508 4.01199 3.99857 -0.0208441 -0.0441868 0.0101082 
4.00365 8.03418 8.01404 0.0040368 -0.0662853 0.033882 
4.00991 8.02876 3.99612 -0.0172112 -0.0379003 -0.00951797 
4.00463 4.02009 8.01438 0.010183 -0.0750409 0.00607017 
4.00894 4.01242 4.00119 0.00624091 -0.0230664 -0.00549383 
2.06739 2.03535 2.05083 -0.0421517 -0.0309805 0.0064277 
1.94352 1.94921 6.05972 0.0857499 0.14567 -0.0602716 
2.03659 6.05127 2.05258 0.111757 0.0354282 0.0368849 
1.94379 5.97149 6.05947 0.111192 0.126363 -0.0418376 
6.07806 1.94771 1.95039 -0.0527852 0.184681 -0.0253269 
5.9548 1.94774 5.96237 0.0962971 0.247181 -0.0121756 
6.0522 5.96776 1.94645 0.0583721 0.157255 -0.0103001 
5.95905 5.97145 5.9573 0.112224 0.208219 -0.00117336 
2.00263 2.02119 7.97103 -0.0248553 -0.0100232 -0.08434 
2.00952 2.03613 3.95879 0.0155949 -0.0553934 -0.153931 
2.01378 6.05584 7.97313 -0.036269 -0.0595715 -0.0958597 
2.01898 6.03977 3.95721 -0.0692142 0.0143332 -0.195503 
6.02685 2.0449 0.0214014 -0.0278492 -0.0828205 0.136364 
6.01339 2.04597 4.03229 -0.0175264 -0.110311 0.118598 
6.02658 6.07376 0.0263248 -0.031116 -0.169596 0.162014 
6.02831 6.06636 4.03316 -0.0460197 -0.0887801 0.12591 
2.00137 0.0109727 1.98624 0.0654899 -0.0248804 0.0694821 
2.01836 0.0571205 5.98233 -0.0699318 0.0700479 0.0261804 
1.98276 4.03058 1.97449 0.0402848 0.0143804 0.0330048 
2.03414 4.07952 5.99056 -0.0794769 0.0768048 0.0842536 
5.99581 0.0613043 2.01077 0.019442 0.105382 -0.0280746 
6.04749 0.0674222 6.02277 -0.0826631 0.0572694 -0.0634397 
6.01548 4.08134 2.01063 0.0393226 0.135406 -0.0784609 
6.03574 4.09 6.02193 -0.0922531 0.0520426 -0.0130763 
7.98661 2.02082 2.00272 -0.0919971 -0.0346196 -0.0265665 
0.0392924 2.05059 5.99448 0.126938 -0.0891343 0.038457 
8.00338 6.06231 1.99786 -0.106021 -0.0820786 -0.008772 
0.043847 6.05436 6.00592 0.102067 -0.0551135 -0.0154739 
3.97136 2.04542 1.98948 -0.128488 -0.0767937 -0.000553968 
4.04915 2.04012 6.00777 0.137169 -0.105494 0.0204129 
3.98899 6.04133 1.99433 -0.180505 -0.0359954 -0.00101354 
4.05564 6.07407 6.00537 0.108141 -0.101707 0.00549307 
ITEM: TIMESTEP
9
ITEM: NUMBER OF ATOMS
40
ITEM: BOX BOUNDS pp pp pp
0 8.02766
0 8.04066
0 8.01998
ITEM: ATOMS x y z fx fy fz 
8.02645 8.02671 8.0169 -0.00626803 -0.051326 0.026211 
8.02412 8.03783 3.99885 -0.000233088 -0.0753417 -0.0127129 
8.02682 4.00662 8.01571 -0.0238304 -0.0403159 0.00497913 
8.02506 4.01196 3.99857 -0.0206093 -0.0425867 0.00851791 
4.00365 8.03413 8.01406 0.00316537 -0.0651356 0.0338492 
4.0099 8.02874 3.99611 -0.0158901 -0.0360429 -0.00947759 
4.00464 4.02004 8.01438 0.0087286 -0.0734099 0.00670174 
4.00895 4.01241 4.00119 0.00666371 -0.0220905 -0.00597029 
2.06733 2.03531 2.05086 -0.0449991 -0.0322519 0.000671906 
1.94366 1.94946 6.0596 0.0872858 0.146102 -0.0573568 
2.03678 6.05135 2.05267 0.112301 0.0311975 0.0293517 
1.94398 5.9717 6.05938 0.112406 0.129233 -0.0380438 
6.07798 1.94803 1.95035 -0.0553099 0.185063 -0.0258668 
5.95496 1.94817 5.96235 0.09733 0.245792 -0.0116763 
6.05228 5.96801 1.94643 0.0618253 0.160984 -0.00963836 
5.95924 5.9718 5.95729 0.113222 0.208981 -0.000816417 
2.00245 2.0211 7.97042 -0.0203132 -0.00701457 -0.0705659 
2.00964 2.03575 3.95774 0.0126408 -0.0478919 -0.132467 
2.01353 6.0554 7.9725 -0.0319345 -0.0493198 -0.0849039 
2.0186 6.03985 3.95588 -0.0672721 0.014062 -0.169001 
6.02671 2.04435 0.0222699 -0.0281966 -0.0733365 0.122542 
6.01324 2.0452 4.03309 -0.0128978 -0.0945184 0.103191 
6.02641 6.07266 0.0273797 -0.0303552 -0.151618 0.143637 
6.02801 6.06578 4.034 -0.0411815 -0.0791277 0.109827 
2.00182 0.0108449 1.98673 0.0566387 -0.0247533 0.0589091 
2.01787 0.0577638 5.98254 -0.0594324 0.0482243 0.0196314 
1.98304 4.03072 1.9747 0.0349962 0.00906303 0.0293329 
2.03359 4.08021 5.99118 -0.0685274 0.0544243 0.0697017 
5.99598 0.0621935 2.01055 0.0137186 0.0781393 -0.0222284 
6.04692 0.068062 6.02231 -0.0711776 0.0311178 -0.0523309 
6.01579 4.08244 2.01006 0.030959 0.103638 -0.0650474 
6.03511 4.09061 6.02181 -0.0802977 0.02637 -0.00902946 
7.98595 2.02056 2.00253 -0.0775136 -0.0279008 -0.0221641 
0.040202 2.04998 5.99476 0.106333 -0.0780496 0.0326904 
8.00279 6.06176 1.99779 -0.101518 -0.0717432 -0.00657089 
0.0446431 6.05394 6.00588 0.0806307 -0.0452244 -0.018183 
3.97046 2.04492 1.9895 -0.109615 -0.0692363 -0.00229069 
4.05016 2.03942 6.00787 0.113028 -0.0930652 0.0211923 
3.98792 6.04108 1.99433 -0.168762 -0.0310249 -0.00130567 
4.0565 6.07339 6.00538 0.0842602 -0.0900667 0.00670899 
ITEM: TIMESTEP
10
ITEM: NUMBER OF ATOMS
40
ITEM: BOX BOUNDS pp pp pp
0 8.02766
0 8.04066
0 8.01998
ITEM: ATOMS x y z fx fy fz 
8.02644 8.02668 8.01692 -0.00489947 -0.0504083 0.0263481 
8.02412 8.03777 3.99884 -0.000982989 -0.0743826 -0.0133578 
8.02679 4.00659 8.01571 -0.0212669 -0.038111 0.00635745 
8.02505 4.01193 3.99858 -0.0203707 -0.0408376 0.00683902 
4.00366 8.03409 8.01408 0.00225523 -0.0638391 0.0337316 
4.00989 8.02871 3.99611 -0.0144216 -0.0340064 -0.00935387 
4.00465 4.01999 8.01438 0.00717017 -0.0716616 0.00732215 
4.00895 4.01239 4.00119 0.00714818 -0.0210407 -0.00642825 
2.06726 2.03525 2.0509 -0.0482946 -0.0335241 -0.00585661 
1.94382 1.94974 6.05947 0.0891473 0.1465 -0.0543366 
2.03699 6.05143 2.05277 0.112634 0.0266443 0.0206895 
1.94419 5.97193 6.05928 0.113803 0.132316 -0.0341653 
6.07789 1.94838 1.95031 -0.0581563 0.185466 -0.0261656 
5.95514 1.94864 5.96233 0.0986097 0.243976 -0.0109782 
6.05238 5.9683 1.94641 0.065434 0.16519 -0.00848633 
5.95945 5.9722 5.95729 0.114373 0.209518 -0.000257953 
2.00225 2.021 7.96977 -0.015442 -0.00381081 -0.0555832 
2.00976 2.03534 3.9566 0.00940656 -0.0399043 -0.108963 
2.01327 6.05493 7.97183 -0.0273364 -0.0383354 -0.07281 
2.01817 6.03993 3.95445 -0.0652235 0.0136804 -0.139798 
6.02656 2.04376 0.0232124 -0.0285528 -0.0631581 0.107299 
6.01308 2.04437 4.03395 -0.00792494 -0.0776261 0.0864093 
6.02622 6.07147 0.0285212 -0.0296126 -0.132216 0.123308 
6.02768 6.06516 4.03492 -0.0360165 -0.0687836 0.0922195 
2.0023 0.0107022 1.98726 0.0470156 -0.0245526 0.0474634 
2.01734 0.0584362 5.98278 -0.0481398 0.0249146 0.0125993 
1.98333 4.03087 1.97493 0.0292454 0.00334755 0.0253034 
2.033 4.08092 5.99184 -0.0567756 0.0304522 0.054059 
5.99616 0.0631298 2.01032 0.00755165 0.0487789 -0.0158851 
6.0463 0.0687205 6.0218 -0.0588274 0.00343083 -0.0403798 
6.01611 4.0836 2.00944 0.0218828 0.0692094 -0.0505238 
6.03443 4.09123 6.02168 -0.0674375 -0.000824178 -0.00465085 
7.98525 2.02028 2.00232 -0.0617307 -0.0207113 -0.01743 
0.0411757 2.04934 5.99505 0.0838925 -0.0661893 0.0264907 
8.00213 6.06116 1.99771 -0.0963484 -0.0605796 -0.00421519 
0.0454878 6.0535 6.00582 0.0574509 -0.0346894 -0.0210576 
3.9695 2.04439 1.98951 -0.0890129 -0.0611413 -0.00417202 
4.05124 2.03866 6.00798 0.0868797 -0.0797498 0.0220361 
3.98675 6.04081 1.99433 -0.155666 -0.0257399 -0.00165186 
4.05741 6.07267 6.0054 0.0585399 -0.0776002 0.00803213 
