ITEM: TIMESTEP
0
ITEM: NUMBER OF ATOMS
40
ITEM: BOX BOUNDS pp pp pp
0 8.04111
0 8.04111
0 8.04111
ITEM: ATOMS x y z fx fy fz 
0.0153907 0.00743963 0.00958098 0.743149 0.138887 -0.0802364 
8.03753 8.02976 4.02279 -0.158642 0.293748 0.0233925 
4.012 8.03524 0.00410659 -0.148758 0.181635 -0.119424 
4.0203 0.0134431 4.01989 0.690802 0.197373 0.102573 
8.02893 4.01047 0.00251365 0.896455 0.484896 -0.128731 
8.03493 4.01845 4.00857 -0.209779 0.251097 0.0869754 
4.02223 4.01967 0.00830325 -0.205135 0.427476 -0.155363 
4.01381 4.00994 4.01448 0.784358 0.313692 0.0567216 
2.09789 2.08752 1.91861 -0.194867 -0.215764 0.565553 
2.08333 2.09922 5.95946 -0.067386 -0.380918 -0.259991 
6.12534 2.09852 1.93027 -0.26526 -0.348317 2.22464 
6.11884 2.08413 6.11638 -0.392693 -0.0887676 -2.07486 
2.0897 6.11221 2.07914 -0.0152171 -0.257179 0.185055 
2.07773 6.09588 6.09705 0.042872 0.0431138 -0.214327 
6.11895 6.10505 1.92694 -0.342406 -0.00459139 1.96642 
6.11065 6.11495 6.09539 -0.276731 -0.215969 -1.81909 
2.01378 2.00484 8.04045 0.258013 0.332934 0.527055 
2.01126 2.01417 4.03063 0.159397 0.299099 0.684669 
6.04182 2.01055 8.03194 0.172716 0.250687 0.20347 
6.01975 2.01927 4.00909 0.456456 0.206837 -0.106612 
2.02432 6.03784 8.02666 0.0985279 0.20614 -0.357836 
2.0139 6.03462 4.01563 0.147861 0.219284 -0.573746 
6.02877 6.01755 0.0121292 0.310798 0.302727 -0.227429 
6.0333 6.02067 4.0065 0.341811 0.33008 0.177764 
2.01991 0.0136401 2.01137 0.17517 -0.671907 -0.104538 
2.00616 8.03807 6.02481 0.151191 -0.545619 0.138469 
6.02694 8.03075 2.0149 0.328749 -0.461485 -0.502116 
6.01546 0.0067095 6.02853 0.492403 -0.728272 0.407546 
2.02107 4.02743 2.02433 0.102621 -0.585337 -0.295597 
2.00108 4.03244 6.04306 0.310102 -0.659426 -0.00735099 
6.02626 4.0304 2.01343 0.395819 -0.810137 -0.540086 
6.02789 4.02321 6.02169 0.288615 -0.598555 0.511767 
0.0134753 2.00005 2.00921 -0.829058 0.367204 -0.393041 
0.0147828 2.0186 6.04094 -0.734614 0.189336 0.104753 
4.0052 2.01741 2.02321 -0.402348 0.235813 -0.564114 
4.02237 1.99721 6.02464 -0.670798 0.425528 0.215314 
0.0118864 6.03522 2.01507 -0.538988 0.222517 -0.286157 
0.00568989 6.03593 6.03152 -0.81705 0.266642 0.332736 
4.01312 6.03065 2.00176 -0.65899 0.260441 -0.102216 
4.0111 6.0428 6.01811 -0.419163 0.125058 0.397985 
ITEM: TIMESTEP
1
ITEM: NUMBER OF ATOMS
40
ITEM: BOX BOUNDS pp pp pp
0 8.04111
0 8.04111
0 8.04111
ITEM: ATOMS x y z fx fy fz 
0.0154168 0.00744451 0.00957816 0.74088 0.138718 -0.0803058 
8.03753 8.02977 4.02279 -0.158008 0.293358 0.0234602 
4.012 8.03525 0.0041024 -0.147224 0.181699 -0.119288 
4.02032 0.0134501 4.01989 0.689625 0.197011 0.102452 
8.02897 4.01049 0.00250913 0.894241 0.484361 -0.128617 
8.03492 4.01846 4.00857 -0.20892 0.250992 0.0869636 
4.02222 4.01968 0.00829779 -0.20367 0.426822 -0.155423 
4.01383 4.00995 4.01448 0.782963 0.313537 0.0567585 
2.09787 2.0875 1.91867 -0.194295 -0.214126 0.56265 
2.08332 2.09918 5.95944 -0.0664458 -0.379014 -0.258371 
6.12531 2.09849 1.93049 -0.264218 -0.347094 2.21715 
6.1188 2.08412 6.11617 -0.390399 -0.0872338 -2.06698 
2.0897 6.11219 2.07916 -0.0152338 -0.255912 0.183777 
2.07773 6.09588 6.09703 0.043653 0.0439284 -0.212274 
6.11892 6.10505 1.92714 -0.340176 -0.00349537 1.95915 
6.11062 6.11493 6.0952 -0.27494 -0.214697 -1.81284 
2.01386 2.00494 8.04061 0.256198 0.330873 0.525507 
2.01131 2.01426 4.03084 0.158278 0.297153 0.681542 
6.04188 2.01063 8.032 0.171225 0.248981 0.201317 
6.01989 2.01933 4.00906 0.453988 0.205296 -0.106084 
2.02435 6.0379 8.02655 0.0974595 0.204711 -0.357352 
2.01395 6.03468 4.01545 0.146695 0.217738 -0.571434 
6.02886 6.01764 0.0120606 0.308745 0.301214 -0.225165 
6.03341 6.02077 4.00655 0.33977 0.328277 0.176736 
2.01996 0.0134375 2.01134 0.173766 -0.668558 -0.103029 
2.0062 8.0379 6.02485 0.150202 -0.543945 0.137262 
6.02704 8.03061 2.01475 0.326689 -0.460518 -0.498909 
6.01561 0.0064899 6.02865 0.489487 -0.724973 0.404673 
2.0211 4.02726 2.02424 0.101509 -0.583679 -0.293698 
2.00118 4.03224 6.04306 0.308346 -0.656376 -0.00839545 
6.02637 4.03016 2.01327 0.393457 -0.806062 -0.53656 
6.02798 4.02303 6.02185 0.286754 -0.597373 0.508454 
0.0132253 2.00016 2.00909 -0.824932 0.365052 -0.390052 
0.0145613 2.01866 6.04098 -0.732746 0.18786 0.103651 
4.00508 2.01748 2.02304 -0.400449 0.233984 -0.560252 
4.02217 1.99734 6.02471 -0.667662 0.423036 0.213446 
0.0117238 6.03528 2.01499 -0.537872 0.221037 -0.284386 
0.00544352 6.03601 6.03162 -0.813575 0.264784 0.330105 
4.01292 6.03073 2.00173 -0.655239 0.258682 -0.100789 
4.01097 6.04283 6.01823 -0.417927 0.123955 0.395149 
ITEM: TIMESTEP
2
ITEM: NUMBER OF ATOMS
40
ITEM: BOX BOUNDS pp pp pp
0 8.04111
0 8.04111
0 8.04111
ITEM: ATOMS x y z fx fy fz 
0.0154949 0.00745914 0.0095697 0.734097 0.138215 -0.0805112 
8.03751 8.0298 4.02279 -0.156104 0.292192 0.0236613 
4.01198 8.03527 0.00408982 -0.142634 0.181895 -0.11888 
4.0204 0.0134708 4.0199 0.686101 0.195925 0.102089 
8.02906 4.01054 0.00249557 0.887623 0.482763 -0.128278 
8.0349 4.01848 4.00858 -0.206345 0.25068 0.0869267 
4.0222 4.01973 0.00828141 -0.199286 0.424867 -0.155602 
4.01392 4.00999 4.01449 0.778788 0.313077 0.0568681 
2.09781 2.08744 1.91884 -0.19263 -0.209275 0.554018 
2.0833 2.09906 5.95936 -0.0636807 -0.37336 -0.253477 
6.12523 2.09838 1.93116 -0.261161 -0.343487 2.19477 
6.11868 2.08409 6.11554 -0.383574 -0.0826876 -2.04349 
2.0897 6.11211 2.07921 -0.0153366 -0.25216 0.179928 
2.07774 6.09589 6.09697 0.0459505 0.0463223 -0.206176 
6.11882 6.10505 1.92773 -0.333541 -0.000254247 1.93745 
6.11053 6.11487 6.09466 -0.269632 -0.210935 -1.79415 
2.01409 2.00524 8.04109 0.250754 0.324695 0.520802 
2.01145 2.01453 4.03146 0.154925 0.291325 0.672117 
6.04203 2.01085 8.03218 0.166751 0.243859 0.194927 
6.0203 2.01952 4.00896 0.446607 0.200687 -0.104504 
2.02444 6.03809 8.02623 0.0942534 0.200426 -0.355846 
2.01408 6.03488 4.01494 0.143204 0.213107 -0.564468 
6.02914 6.01792 0.0118563 0.302592 0.29667 -0.218433 
6.03372 6.02107 4.00671 0.333667 0.322885 0.173673 
2.02012 0.0128317 2.01125 0.169563 -0.658501 -0.0985402 
2.00634 8.03741 6.02498 0.147234 -0.538875 0.133648 
6.02734 8.03019 2.0143 0.320524 -0.457564 -0.489323 
6.01606 0.00583309 6.02902 0.480761 -0.715056 0.396084 
2.0212 4.02673 2.02398 0.0981735 -0.578651 -0.288009 
2.00146 4.03164 6.04305 0.303088 -0.647208 -0.011494 
6.02673 4.02943 2.01279 0.386386 -0.793824 -0.526021 
6.02824 4.02248 6.02231 0.281178 -0.593772 0.498552 
0.0124778 2.00049 2.00873 -0.812525 0.358606 -0.38112 
0.0138978 2.01883 6.04107 -0.727091 0.183439 0.100354 
4.00471 2.0177 2.02253 -0.394705 0.228509 -0.548702 
4.02157 1.99772 6.0249 -0.658239 0.415579 0.207882 
0.0112369 6.03548 2.01473 -0.534464 0.216602 -0.279089 
0.0047065 6.03625 6.03191 -0.803123 0.259218 0.322239 
4.01233 6.03096 2.00164 -0.643978 0.253417 -0.096545 
4.01059 6.04295 6.01859 -0.414171 0.120649 0.386671 
ITEM: TIMESTEP
3
ITEM: NUMBER OF ATOMS
40
ITEM: BOX BOUNDS pp pp pp
0 8.04111
0 8.04111
0 8.04111
ITEM: ATOMS x y z fx fy fz 
0.0156247 0.00748347 0.00955558 0.722871 0.137387 -0.0808465 
8.03748 8.02985 4.0228 -0.152927 0.290267 0.0239904 
4.01196 8.0353 0.00406889 -0.135023 0.182226 -0.118199 
4.02052 0.0135054 4.01992 0.680248 0.194121 0.101481 
8.02922 4.01062 0.002473 0.876675 0.480128 -0.127719 
8.03486 4.01853 4.0086 -0.202059 0.250173 0.0868625 
4.02216 4.0198 0.0082541 -0.192017 0.421635 -0.155891 
4.01405 4.01004 4.0145 0.771861 0.31232 0.0570474 
2.09771 2.08733 1.91912 -0.190029 -0.201398 0.539894 
2.08327 2.09887 5.95923 -0.05927 -0.364137 -0.245201 
6.1251 2.09821 1.93228 -0.256291 -0.337665 2.15772 
6.11849 2.08405 6.1145 -0.372402 -0.0752879 -2.00474 
2.08969 6.11198 2.07931 -0.0156744 -0.246072 0.173468 
2.07777 6.09592 6.09686 0.0496169 0.0501395 -0.196212 
6.11865 6.10505 1.92871 -0.322663 0.00498994 1.90165 
6.1104 6.11476 6.09375 -0.26101 -0.204849 -1.76322 
2.01447 2.00573 8.04188 0.24169 0.314421 0.512775 
2.01169 2.01498 4.03248 0.149346 0.281647 0.656259 
6.04229 2.01122 8.03248 0.15929 0.235312 0.184495 
6.02098 2.01983 4.0088 0.434377 0.193058 -0.101897 
2.02459 6.0384 8.02569 0.0889071 0.193297 -0.353155 
2.0143 6.03521 4.01408 0.137401 0.205416 -0.55277 
6.02961 6.01837 0.0115202 0.292357 0.28908 -0.20743 
6.03422 6.02156 4.00698 0.32355 0.313963 0.168629 
2.02038 0.0118288 2.01109 0.162584 -0.641694 -0.0911873 
2.00656 8.03659 6.02518 0.142293 -0.530268 0.127646 
6.02782 8.0295 2.01355 0.310291 -0.452461 -0.47346 
6.01679 0.00474505 6.02963 0.466302 -0.698477 0.381873 
2.02135 4.02585 2.02354 0.0926197 -0.570097 -0.278561 
2.00192 4.03066 6.04303 0.294342 -0.631852 -0.0165421 
6.02732 4.02822 2.01198 0.37465 -0.773385 -0.508584 
6.02867 4.02159 6.02307 0.271912 -0.587583 0.482163 
0.0112403 2.00104 2.00815 -0.791747 0.347894 -0.366349 
0.0127959 2.01911 6.04123 -0.717484 0.176093 0.0948834 
4.00411 2.01805 2.02169 -0.384968 0.21942 -0.529575 
4.02056 1.99836 6.02522 -0.642477 0.403214 0.198751 
0.0104277 6.03581 2.0143 -0.528613 0.209229 -0.270319 
0.00348515 6.03665 6.03241 -0.785606 0.249966 0.309227 
4.01135 6.03135 2.00149 -0.625178 0.244679 -0.0895937 
4.00996 6.04313 6.01918 -0.407745 0.11515 0.372634 
ITEM: TIMESTEP
4
ITEM: NUMBER OF ATOMS
40
ITEM: BOX BOUNDS pp pp pp
0 8.04111
0 8.04111
0 8.04111
ITEM: ATOMS x y z fx fy fz 
0.0158052 0.00751746 0.00953578 0.70732 0.136261 -0.0812963 
8.03744 8.02992 4.0228 -0.148471 0.28761 0.0244363 
4.01192 8.03535 0.00403966 -0.124448 0.182697 -0.117243 
4.02069 0.0135536 4.01994 0.672096 0.191612 0.100624 
8.02944 4.01074 0.00244145 0.861513 0.476492 -0.126946 
8.03481 4.01859 4.00862 -0.196069 0.249488 0.0867673 
4.02211 4.01991 0.00821584 -0.181918 0.417163 -0.15627 
4.01425 4.01012 4.01451 0.762232 0.311283 0.0572902 
2.09757 2.08718 1.91951 -0.186755 -0.190807 0.520665 
2.08322 2.09861 5.95905 -0.0535039 -0.351645 -0.233354 
6.12492 2.09797 1.93383 -0.249944 -0.329921 2.1064 
6.11822 2.08399 6.11306 -0.357176 -0.0653039 -1.9513 
2.08968 6.1118 2.07943 -0.0164972 -0.237896 0.164324 
2.0778 6.09595 6.09672 0.0544172 0.0551159 -0.182674 
6.11841 6.10505 1.93008 -0.307823 0.011987 1.85224 
6.11021 6.11461 6.09248 -0.249413 -0.196711 -1.72036 
2.015 2.00642 8.04298 0.229017 0.300085 0.50113 
2.01202 2.01559 4.0339 0.141558 0.268167 0.633754 
6.04264 2.01174 8.03289 0.148834 0.223327 0.170338 
6.02192 2.02025 4.00858 0.417405 0.182482 -0.0982906 
2.02479 6.03882 8.02494 0.0814168 0.183336 -0.349009 
2.0146 6.03566 4.01289 0.129314 0.194704 -0.536207 
6.03024 6.01899 0.011059 0.278065 0.278419 -0.192459 
6.03493 6.02224 4.00734 0.309499 0.301608 0.161699 
2.02073 0.0104389 2.01088 0.152871 -0.618079 -0.0811595 
2.00687 8.03546 6.02547 0.135381 -0.517888 0.119287 
6.0285 8.02853 2.01252 0.296059 -0.444939 -0.451494 
6.0178 0.00323578 6.03046 0.446223 -0.675143 0.362196 
2.02155 4.02463 2.02293 0.0848536 -0.557741 -0.265407 
2.00256 4.02929 6.04301 0.282138 -0.610189 -0.0233709 
6.02814 4.02654 2.01087 0.358319 -0.744666 -0.484445 
6.02926 4.02033 6.02412 0.258996 -0.578531 0.459457 
0.00952535 2.00179 2.00735 -0.762441 0.332961 -0.345916 
0.0112614 2.0195 6.04144 -0.703654 0.165854 0.0872835 
4.00328 2.01853 2.02053 -0.370995 0.206766 -0.503057 
4.01917 1.99923 6.02566 -0.620298 0.386034 0.186258 
0.00929971 6.03627 2.01372 -0.520052 0.198947 -0.258162 
0.00179002 6.0372 6.03309 -0.760882 0.237064 0.29121 
4.00999 6.03188 2.00128 -0.598787 0.232522 -0.0801112 
4.00909 6.04339 6.02 -0.3984 0.107474 0.353178 
ITEM: TIMESTEP
5
ITEM: NUMBER OF ATOMS
40
ITEM: BOX BOUNDS pp pp pp
0 8.04111
0 8.04111
0 8.04111
ITEM: ATOMS x y z fx fy fz 
0.0160354 0.00756102 0.00951027 0.687603 0.134865 -0.0818389 
8.0374 8.03001 4.02281 -0.142726 0.284262 0.024989 
4.01188 8.0354 0.00400219 -0.110989 0.183321 -0.116007 
4.0209 0.0136152 4.01998 0.661698 0.188416 0.0995112 
8.02971 4.0109 0.00240099 0.842297 0.471912 -0.125979 
8.03475 4.01867 4.00865 -0.188386 0.248649 0.0866362 
4.02205 4.02004 0.00816659 -0.169065 0.411508 -0.156716 
4.01449 4.01022 4.01453 0.749961 0.30999 0.0575882 
2.0974 2.087 1.92001 -0.183163 -0.177939 0.496872 
2.08317 2.09827 5.95883 -0.0467931 -0.336308 -0.217682 
6.12468 2.09766 1.9358 -0.242596 -0.320655 2.04133 
6.11787 2.08392 6.11123 -0.338329 -0.0531261 -1.88396 
2.08966 6.11158 2.07959 -0.0181476 -0.227976 0.152405 
2.07784 6.09599 6.09653 0.0600176 0.0608855 -0.165976 
6.11811 6.10505 1.93182 -0.289413 0.0203906 1.78991 
6.10997 6.11442 6.09087 -0.235313 -0.186909 -1.66601 
2.01567 2.00729 8.04438 0.212756 0.281733 0.485476 
2.01243 2.01637 4.0357 0.131574 0.250951 0.604287 
6.04308 2.01239 8.03341 0.135385 0.20789 0.152871 
6.02312 2.02078 4.0083 0.395836 0.169058 -0.0937323 
2.02503 6.03935 8.02398 0.0717806 0.170568 -0.343036 
2.01498 6.03622 4.01137 0.118976 0.181023 -0.514595 
6.03105 6.01979 0.0104817 0.259759 0.264655 -0.173934 
6.03582 6.02311 4.00781 0.291627 0.285946 0.153002 
2.02118 0.00867628 2.01063 0.140476 -0.587558 -0.0687174 
2.00727 8.03401 6.02582 0.126506 -0.501393 0.108615 
6.02936 8.0273 2.01121 0.277918 -0.434615 -0.42366 
6.01909 0.00131936 6.03152 0.42068 -0.644922 0.337262 
2.02181 4.02307 2.02216 0.0748887 -0.541217 -0.248616 
2.00337 4.02756 6.04297 0.266512 -0.582053 -0.0317439 
6.02917 4.02442 2.00947 0.337489 -0.707559 -0.453874 
6.03001 4.01873 6.02545 0.24249 -0.566216 0.430681 
0.00735058 2.00275 2.00633 -0.724392 0.313863 -0.320063 
0.00930243 2.01999 6.0417 -0.685216 0.152768 0.0776124 
4.00222 2.01913 2.01907 -0.352449 0.190617 -0.469397 
4.01741 2.00034 6.02621 -0.591568 0.36416 0.170694 
0.00785809 6.03685 2.01297 -0.508412 0.185798 -0.24274 
-0.000363957 6.03789 6.03394 -0.728742 0.220554 0.268388 
4.00827 6.03256 2.00103 -0.564737 0.21702 -0.0683463 
4.00797 6.0437 6.02103 -0.385794 0.0976418 0.328492 
ITEM: TIMESTEP
6
ITEM: NUMBER OF ATOMS
40
ITEM: BOX BOUNDS pp pp pp
0 8.04111
0 8.04111
0 8.04111
ITEM: ATOMS x y z fx fy fz 
0.016314 0.00761406 0.00947901 0.663921 0.133235 -0.0824527 
8.03734 8.03013 4.02282 -0.135681 0.280271 0.0256302 
4.01183 8.03547 0.00395657 -0.0947445 0.184103 -0.11449 
4.02116 0.0136901 4.02001 0.649105 0.184554 0.0981367 
8.03005 4.01108 0.00235167 0.819229 0.466451 -0.124824 
8.03467 4.01877 4.00868 -0.179021 0.247686 0.0864585 
4.02198 4.02021 0.00810634 -0.153552 0.40473 -0.1572 
4.01479 4.01034 4.01455 0.735137 0.308466 0.0579267 
2.09719 2.08677 1.92061 -0.179695 -0.163349 0.469195 
2.0831 2.09787 5.95856 -0.039666 -0.318663 -0.197852 
6.1244 2.09728 1.93818 -0.234841 -0.310379 1.96316 
6.11746 2.08384 6.10901 -0.316428 -0.0392703 -1.80364 
2.08965 6.11131 2.07978 -0.0210602 -0.21675 0.137576 
2.0779 6.09605 6.09632 0.0659904 0.0669788 -0.146635 
6.11776 6.10505 1.93392 -0.267946 0.0297405 1.7155 
6.10968 6.11419 6.08892 -0.219328 -0.175941 -1.6007 
2.01647 2.00832 8.04607 0.192943 0.259434 0.465312 
2.01292 2.0173 4.03786 0.119418 0.230081 0.567461 
6.0436 2.01316 8.03401 0.118946 0.188997 0.132586 
6.02455 2.02142 4.00797 0.369846 0.15291 -0.088277 
2.02533 6.03999 8.02281 0.0600019 0.155023 -0.334758 
2.01544 6.0369 4.00955 0.106425 0.164438 -0.487694 
6.03201 6.02074 0.00979957 0.237499 0.247763 -0.152338 
6.03689 6.02414 4.00836 0.270064 0.267129 0.142696 
2.02172 0.00655935 2.01033 0.125466 -0.550014 -0.0541842 
2.00774 8.03226 6.02624 0.115675 -0.480356 0.0956891 
6.03038 8.0258 2.00965 0.255982 -0.420998 -0.390262 
6.02063 -0.000985945 6.03277 0.389865 -0.607613 0.307351 
2.02212 4.02119 2.02124 0.0627395 -0.520049 -0.22828 
2.00434 4.02547 6.04291 0.247508 -0.547225 -0.0413633 
6.0304 4.02187 2.00779 0.312275 -0.661916 -0.417215 
6.0309 4.01679 6.02704 0.222458 -0.550114 0.396133 
0.00473901 2.0039 2.00513 -0.677328 0.290679 -0.289103 
0.00693031 2.02057 6.04201 -0.661656 0.136884 0.0659495 
4.00095 2.01986 2.01733 -0.328924 0.171068 -0.428922 
4.01529 2.00167 6.02686 -0.556098 0.337744 0.152422 
0.00610988 6.03754 2.01208 -0.493219 0.169833 -0.224212 
-0.00295738 6.03871 6.03496 -0.688904 0.200494 0.241016 
4.00621 6.03336 2.00074 -0.522923 0.198262 -0.054611 
4.00663 6.04408 6.02226 -0.369479 0.0856847 0.298824 
ITEM: TIMESTEP
7
ITEM: NUMBER OF ATOMS
40
ITEM: BOX BOUNDS pp pp pp
0 8.04111
0 8.04111
0 8.04111
ITEM: ATOMS x y z fx fy fz 
0.0166391 0.00767646 0.00944196 0.636506 0.131421 -0.0831066 
8.03727 8.03026 4.02283 -0.127316 0.275698 0.0263429 
4.01177 8.03556 0.0039029 -0.0758336 0.185062 -0.112682 
4.02147 0.0137779 4.02006 0.634392 0.18006 0.09649 
8.03045 4.0113 0.00229359 0.79254 0.460186 -0.123504 
8.03458 4.01888 4.00872 -0.167989 0.246637 0.0862215 
4.02189 4.0204 0.00803505 -0.135489 0.396914 -0.157683 
4.01514 4.01048 4.01458 0.717854 0.306744 0.0582899 
2.09694 2.08652 1.9213 -0.176858 -0.147705 0.438448 
2.08303 2.09741 5.95825 -0.0327565 -0.299357 -0.173465 
6.12407 2.09685 1.94096 -0.227398 -0.299714 1.87265 
6.11699 2.08375 6.10643 -0.292186 -0.0243827 -1.71141 
2.08962 6.11099 2.08 -0.0257393 -0.204744 0.119689 
2.07797 6.09612 6.09607 0.0718163 0.0728176 -0.125278 
6.11735 6.10507 1.93637 -0.244052 0.039472 1.62994 
6.10935 6.11393 6.08665 -0.202209 -0.164418 -1.52508 
2.01738 2.00951 8.04805 0.169626 0.233271 0.440041 
2.01348 2.01836 4.04037 0.105106 0.205652 0.522789 
6.0442 2.01405 8.0347 0.0995418 0.166651 0.110035 
6.0262 2.02215 4.00758 0.33964 0.134178 -0.0819885 
2.02565 6.04072 8.02144 0.0460873 0.136747 -0.323621 
2.01595 6.03768 4.00743 0.0917074 0.145033 -0.455217 
6.03312 6.02184 0.00902559 0.211376 0.22772 -0.128217 
6.03812 6.02534 4.00901 0.244972 0.245332 0.130957 
2.02233 0.00411079 2.01 0.107918 -0.505302 -0.0379422 
2.00827 8.03021 6.02672 0.102898 -0.454253 0.0805827 
6.03156 8.02405 2.00786 0.230388 -0.40349 -0.351669 
6.0224 -0.00365761 6.03422 0.353997 -0.562964 0.272796 
2.02246 4.01899 2.02019 0.0484322 -0.493674 -0.204513 
2.00546 4.02306 6.04283 0.22518 -0.505434 -0.0518809 
6.03183 4.01892 2.00587 0.282817 -0.607551 -0.374884 
6.03193 4.01451 6.02887 0.198983 -0.52958 0.356191 
0.00171904 2.00522 2.00375 -0.620939 0.263492 -0.25341 
0.00415924 2.02123 6.04236 -0.632347 0.118262 0.0523992 
3.99949 2.02068 2.01532 -0.299948 0.148226 -0.382021 
4.01284 2.00321 6.02761 -0.513637 0.306955 0.131873 
0.00406429 6.03833 2.01105 -0.47391 0.15111 -0.202765 
-0.00596616 6.03965 6.03613 -0.64102 0.176942 0.209402 
4.00383 6.03429 2.00041 -0.473228 0.176355 -0.0392697 
4.00506 6.04451 6.02366 -0.348923 0.0716317 0.264467 
ITEM: TIMESTEP
8
ITEM: NUMBER OF ATOMS
40
ITEM: BOX BOUNDS pp pp pp
0 8.04111
0 8.04111
0 8.04111
ITEM: ATOMS x y z fx fy fz 
0.017009 0.00774808 0.00939908 0.605631 0.129471 -0.0837691 
8.03719 8.03041 4.02285 -0.117609 0.270612 0.0271025 
4.0117 8.03565 0.00384133 -0.0543914 0.186207 -0.110575 
4.02182 0.0138784 4.02011 0.617641 0.174976 0.0945603 
8.0309 4.01155 0.00222683 0.762498 0.453196 -0.122022 
8.03448 4.01901 4.00876 -0.155303 0.245538 0.0859137 
4.0218 4.02062 0.00795268 -0.115009 0.38814 -0.158114 
4.01554 4.01065 4.01461 0.698233 0.304863 0.058656 
2.09666 2.08623 1.92208 -0.175208 -0.131782 0.40556 
2.08295 2.09688 5.9579 -0.0268052 -0.279142 -0.14407 
6.12369 2.09635 1.94412 -0.221083 -0.289357 1.77068 
6.11645 2.08365 6.10351 -0.266463 -0.00924842 -1.60841 
2.0896 6.11063 2.08024 -0.0327477 -0.192561 0.0985671 
2.07805 6.0962 6.0958 0.0769 0.0777338 -0.102629 
6.11689 6.10509 1.93914 -0.218474 0.0489146 1.53426 
6.10897 6.11364 6.08407 -0.184845 -0.153055 -1.43986 
2.01839 2.01085 8.05029 0.142882 0.203356 0.409005 
2.01411 2.01956 4.04319 0.0886554 0.177773 0.469718 
6.04485 2.01504 8.03545 0.0772205 0.140889 0.0857987 
6.02807 2.02296 4.00714 0.305449 0.113015 -0.0749408 
2.02601 6.04153 8.01987 0.0300566 0.1158 -0.308983 
2.01652 6.03854 4.00503 0.0748796 0.122899 -0.416839 
6.03435 6.02309 0.00817432 0.181504 0.204524 -0.102152 
6.03949 6.02669 4.00973 0.216532 0.220747 0.117985 
2.02301 0.00135763 2.00964 0.0879243 -0.453264 -0.0204199 
2.00887 8.0279 6.02724 0.088183 -0.422478 0.0633827 
6.03287 8.02206 2.00585 0.201294 -0.381402 -0.308311 
6.02439 -0.00666863 6.03583 0.313319 -0.510652 0.233987 
2.02283 4.0165 2.01901 0.0320098 -0.461451 -0.177459 
2.00671 4.02034 6.04272 0.199586 -0.456368 -0.0628972 
6.03342 4.0156 2.00371 0.249273 -0.544264 -0.32737 
6.03308 4.01192 6.03091 0.172151 -0.503843 0.311284 
-0.00167523 2.0067 2.00221 -0.55489 0.232406 -0.213431 
0.00100698 2.02196 6.04275 -0.596541 0.0969685 0.0370933 
3.99784 2.0216 2.01309 -0.265025 0.122233 -0.329151 
4.01007 2.00492 6.02844 -0.46387 0.271985 0.109539 
0.00173301 6.03921 2.0099 -0.449837 0.129706 -0.178632 
-0.00936136 6.0407 6.03741 -0.584681 0.149971 0.173913 
4.00117 6.03532 2.00006 -0.415528 0.151419 -0.0227396 
4.00328 6.04499 6.02523 -0.323513 0.0555229 0.225758 
ITEM: TIMESTEP
9
ITEM: NUMBER OF ATOMS
40
ITEM: BOX BOUNDS pp pp pp
0 8.04111
0 8.04111
0 8.04111
ITEM: ATOMS x y z fx fy fz 
0.0174214 0.0078288 0.00935031 0.571592 0.127449 -0.0844043 
8.03711 8.03058 4.02286 -0.106537 0.265099 0.0278855 
4.01164 8.03576 0.00377199 -0.0305715 0.187556 -0.108155 
4.02222 0.0139912 4.02017 0.598946 0.169355 0.0923398 
8.0314 4.01183 0.00215151 0.729388 0.445565 -0.120388 
8.03436 4.01916 4.00882 -0.140972 0.244441 0.0855135 
4.0217 4.02086 0.00785921 -0.092249 0.378504 -0.158435 
4.01599 4.01083 4.01464 0.676399 0.30286 0.0589915 
2.09634 2.08592 1.92294 -0.175317 -0.116443 0.371548 
2.08286 2.0963 5.95753 -0.0226308 -0.258851 -0.109176 
6.12327 2.0958 1.94763 -0.216786 -0.280074 1.65817 
6.11587 2.08355 6.10026 -0.240263 0.00520984 -1.49582 
2.08956 6.11024 2.08051 -0.0426779 -0.180863 0.0740207 
2.07815 6.0963 6.09551 0.0805778 0.0809761 -0.0794826 
6.11639 6.10512 1.94223 -0.192065 0.0572964 1.42955 
6.10856 6.11331 6.0812 -0.168234 -0.142654 -1.34583 
2.01949 2.0123 8.05277 0.112819 0.169829 0.371501 
2.01479 2.02085 4.0463 0.0700918 0.146572 0.407663 
6.04556 2.01611 8.03626 0.052065 0.111776 0.060467 
6.03011 2.02383 4.00665 0.267523 0.0895846 -0.0672096 
2.02638 6.04241 8.01812 0.0119518 0.0922662 -0.290156 
2.01714 6.03948 4.00239 0.0559992 0.0981441 -0.372214 
6.0357 6.02445 0.00726152 0.14804 0.178194 -0.074739 
6.041 6.02816 4.01052 0.18494 0.193572 0.103988 
2.02373 -0.00166865 2.00928 0.065595 -0.393747 -0.00208999 
2.00953 8.02533 6.02781 0.0715523 -0.384364 0.0441958 
6.03431 8.01984 2.00366 0.168886 -0.353966 -0.260673 
6.02656 -0.00998736 6.03757 0.268099 -0.450302 0.191377 
2.02322 4.01372 2.01772 0.0135284 -0.422695 -0.147281 
2.00809 4.01734 6.04257 0.170796 -0.399702 -0.0739791 
6.03517 4.01195 2.00136 0.211829 -0.471853 -0.275234 
6.03434 4.00902 6.03314 0.142069 -0.472024 0.261909 
-0.00540385 2.00832 2.00055 -0.478871 0.197542 -0.169674 
-0.00250478 2.02275 6.04315 -0.553387 0.0730772 0.0201918 
3.99603 2.02258 2.01066 -0.223666 0.0932545 -0.270836 
4.00703 2.00681 6.02933 -0.406431 0.233045 0.0859611 
-0.000869356 6.04017 2.00865 -0.420296 0.105707 -0.152072 
-0.0131089 6.04185 6.03881 -0.519435 0.119657 0.134965 
3.99826 6.03644 1.9997 -0.349713 0.123594 -0.00547102 
4.0013 6.04549 6.02693 -0.292586 0.0374126 0.183081 
ITEM: TIMESTEP
10
ITEM: NUMBER OF ATOMS
40
ITEM: BOX BOUNDS pp pp pp
0 8.04111
0 8.04111
0 8.04111
ITEM: ATOMS x y z fx fy fz 
0.0178739 0.00791846 0.00929561 0.534704 0.125413 -0.0849748 
8.03701 8.03077 4.02288 -0.0940687 0.259247 0.0286696 
4.01157 8.03589 0.00369506 -0.00454429 0.18912 -0.10541 
4.02266 0.0141158 4.02024 0.57841 0.163257 0.0898136 
8.03196 4.01215 0.00206774 0.693512 0.437375 -0.118605 
8.03424 4.01933 4.00887 -0.125014 0.24338 0.0849981 
4.02159 4.02114 0.00775461 -0.0673717 0.368106 -0.15858 
4.01648 4.01104 4.01468 0.652491 0.300778 0.0592638 
2.09599 2.08559 1.92387 -0.177732 -0.102596 0.337483 
2.08277 2.09566 5.95713 -0.0211061 -0.239366 -0.0683001 
6.12281 2.09519 1.95148 -0.215416 -0.272659 1.53613 
6.11523 2.08346 6.09672 -0.214722 0.0179581 -1.37484 
2.08952 6.10981 2.08078 -0.0561117 -0.170345 0.0458642 
2.07826 6.09642 6.0952 0.0821434 0.081732 -0.0567002 
6.11584 6.10516 1.9456 -0.165766 0.0637691 1.3169 
6.10812 6.11296 6.07806 -0.15347 -0.134086 -1.24385 
2.02066 2.01386 8.05548 0.079597 0.132873 0.326849 
2.01551 2.02224 4.04965 0.0494452 0.112197 0.336055 
6.04629 2.01726 8.0371 0.0242061 0.0794313 0.0346271 
6.03232 2.02476 4.00613 0.226134 0.064067 -0.0588796 
2.02676 6.04335 8.01619 -0.00815833 0.0662585 -0.266428 
2.01779 6.04047 3.99952 0.0351476 0.070902 -0.321008 
6.03713 6.02592 0.00630375 0.111192 0.1488 -0.0465798 
6.04262 6.02976 4.01137 0.150415 0.164019 0.0891815 
2.0245 -0.00493205 2.00891 0.041063 -0.326658 0.016553 
2.01022 8.02253 6.0284 0.053042 -0.339222 0.0231518 
6.03585 8.0174 2.0013 0.133379 -0.320376 -0.209303 
6.0289 -0.0135773 6.03944 0.218631 -0.381523 0.145472 
2.02362 4.01069 2.01635 -0.00691337 -0.376717 -0.114188 
2.00957 4.01411 6.04237 0.138906 -0.335128 -0.0846662 
6.03704 4.00803 1.99884 0.1707 -0.390166 -0.2191 
6.03568 4.00584 6.03553 0.108857 -0.433161 0.208622 
-0.00942085 2.01006 1.99879 -0.392646 0.159057 -0.12272 
-0.00634986 2.02359 6.04357 -0.501966 0.046672 0.00188572 
3.99409 2.02363 2.00806 -0.175459 0.0614923 -0.207672 
4.00374 2.00883 6.03027 -0.340935 0.190366 0.061713 
-0.00372489 6.0412 2.0073 -0.384559 0.0792253 -0.123389 
-0.0171692 6.04306 6.04028 -0.444826 0.0860986 0.0930365 
3.99513 6.03764 1.99933 -0.275735 0.0930439 0.0120559 
3.99915 6.04602 6.02875 -0.255457 0.0173652 0.13687 
